27
Lattice="8.421641763931781 0.0 0.0 4.2108208819658905 7.293355709136913 0.0 0.0 0.0 44.584161137365626" Properties=species:S:1:pos:R:3:tags:I:1:forces:R:3 charge=0 spin=0 energy=-137.41129330297392 free_energy=-137.41129330297392 stress="0.009996559470891953 -2.150467581785165e-09 5.791777613062266e-10 -2.150467581785165e-09 0.009996568784117699 -1.0619813917145393e-09 5.791777613062266e-10 -1.0619813917145393e-09 -0.0037098368629813194" pbc="T T T"
Pt       1.40360696       0.81037286      20.00000000        3       0.00000140      -0.00000249      -0.24624442
Pt       4.21082088       0.81037286      20.00000000        3       0.00000201      -0.00000204      -0.24624291
Pt       7.01803480       0.81037286      20.00000000        3      -0.00000270      -0.00000236      -0.24624464
Pt       2.80721392       3.24149143      20.00000000        3       0.00000121      -0.00000055      -0.24624631
Pt       5.61442784       3.24149143      20.00000000        3      -0.00000217       0.00000021      -0.24624471
Pt       8.42164176       3.24149143      20.00000000        3       0.00000152       0.00000035      -0.24624646
Pt       4.21082088       5.67261000      20.00000000        3       0.00000302       0.00000129      -0.24624521
Pt       7.01803480       5.67261000      20.00000000        3      -0.00000170       0.00000219      -0.24624531
Pt       9.82524872       5.67261000      20.00000000        3      -0.00000145       0.00000296      -0.24624370
Pt       0.00000000       1.62074571      22.29208057        2       0.00000237      -0.00000133       0.00001199
Pt       2.80721392       1.62074571      22.29208057        2       0.00000096      -0.00000242       0.00001166
Pt       5.61442784       1.62074571      22.29208057        2      -0.00000256      -0.00000244       0.00001213
Pt       1.40360696       4.05186428      22.29208057        2      -0.00000233       0.00000130       0.00001251
Pt       4.21082088       4.05186428      22.29208057        2       0.00000397      -0.00000054       0.00001207
Pt       7.01803480       4.05186428      22.29208057        2      -0.00000198       0.00000017       0.00001253
Pt       2.80721392       6.48298285      22.29208057        2      -0.00000621       0.00000172       0.00001121
Pt       5.61442784       6.48298285      22.29208057        2      -0.00000117       0.00000131       0.00001181
Pt       8.42164176       6.48298285      22.29208057        2       0.00000474       0.00000269       0.00001244
Pt       0.00000000       0.00000000      24.58416114        1       0.00000274      -0.00000198       0.24623391
Pt       2.80721392       0.00000000      24.58416114        1       0.00000040      -0.00000147       0.24623211
Pt       5.61442784       0.00000000      24.58416114        1      -0.00000233      -0.00000176       0.24623077
Pt       1.40360696       2.43111857      24.58416114        1       0.00000117      -0.00000010       0.24623416
Pt       4.21082088       2.43111857      24.58416114        1       0.00000235      -0.00000039       0.24623272
Pt       7.01803480       2.43111857      24.58416114        1      -0.00000284       0.00000006       0.24623401
Pt       2.80721392       4.86223714      24.58416114        1       0.00000013       0.00000180       0.24623354
Pt       5.61442784       4.86223714      24.58416114        1      -0.00000223       0.00000105       0.24623172
Pt       8.42164176       4.86223714      24.58416114        1       0.00000149       0.00000286       0.24623282
