27
Lattice="8.421641763931781 0.0 0.0 4.2108208819658905 7.293355709136913 0.0 0.0 0.0 44.584161137365626" Properties=species:S:1:pos:R:3:tags:I:1:forces:R:3 charge=0 spin=0 energy=-137.51029614110868 free_energy=-137.51029614110868 stress="0.012110618874430656 -4.7160035876459006e-09 1.9185035782243176e-09 -4.7160035876459006e-09 0.012110639363527298 -8.484481173187675e-11 1.9185035782243176e-09 -8.484481173187675e-11 -0.00037514042924158275" pbc="T T T"
Pt       1.40360727       0.81037244      19.95766882        3      -0.00000124       0.00000551      -0.02443008
Pt       4.21082122       0.81037256      19.95766891        3      -0.00000032       0.00000407      -0.02442979
Pt       7.01803444       0.81037241      19.95766854        3       0.00000235       0.00000754      -0.02442722
Pt       2.80721412       3.24149134      19.95766850        3      -0.00000076      -0.00000197      -0.02442805
Pt       5.61442751       3.24149132      19.95766852        3       0.00000546      -0.00000052      -0.02442669
Pt       8.42164213       3.24149149      19.95766853        3      -0.00000477      -0.00000257      -0.02442451
Pt       4.21082076       5.67261032      19.95766881        3       0.00000319      -0.00000232      -0.02443600
Pt       7.01803477       5.67261047      19.95766878        3      -0.00000132      -0.00000590      -0.02443193
Pt       9.82524855       5.67261039      19.95766863        3      -0.00000105      -0.00000411      -0.02443242
Pt       0.00000048       1.62074539      22.29208305        2      -0.00000626       0.00000408      -0.00004600
Pt       2.80721417       1.62074534      22.29208311        2      -0.00000047       0.00000421      -0.00004574
Pt       5.61442747       1.62074566      22.29208289        2       0.00000435      -0.00000004      -0.00004482
Pt       1.40360676       4.05186459      22.29208313        2      -0.00000088      -0.00000359      -0.00004385
Pt       4.21082081       4.05186450      22.29208278        2       0.00000278      -0.00000413      -0.00003048
Pt       7.01803482       4.05186463      22.29208286        2      -0.00000176      -0.00000415      -0.00004353
Pt       2.80721463       6.48298240      22.29208275        2      -0.00000637       0.00000485      -0.00002808
Pt       5.61442778       6.48298326      22.29208277        2       0.00000330      -0.00000339      -0.00002803
Pt       8.42164094       6.48298258      22.29208274        2       0.00000364       0.00000284      -0.00002864
Pt      -0.00000002       0.00000029      24.62649000        1       0.00000065      -0.00000674       0.02446681
Pt       2.80721392       0.00000044      24.62648990        1      -0.00000050      -0.00000822       0.02446601
Pt       5.61442777       0.00000027      24.62649030        1       0.00000120      -0.00000576       0.02446376
Pt       1.40360743       2.43111830      24.62649021        1      -0.00000248       0.00000235       0.02447230
Pt       4.21082068       2.43111819      24.62649008        1       0.00000180       0.00000520       0.02446959
Pt       7.01803462       2.43111820      24.62649034        1       0.00000080       0.00000353       0.02446923
Pt       2.80721328       4.86223720      24.62649001        1       0.00000387       0.00000423       0.02446630
Pt       5.61442774       4.86223721      24.62649028        1       0.00000014       0.00000371       0.02446386
Pt       8.42164242       4.86223734      24.62649011        1      -0.00000544       0.00000138       0.02446772
