40
Lattice="8.421641763931781 0.0 0.0 4.2108208819658905 7.293355709136913 0.0 0.0 0.0 46.87624170604845" Properties=species:S:1:pos:R:3:tags:I:1:initial_magmoms:R:1:forces:R:3 charge=0 spin=0 energy=-206.89750601596558 free_energy=-206.89750601596558 stress="0.010368689894676208 4.4702219383907504e-06 4.593171524902573e-06 4.4702219383907504e-06 0.010370267555117607 -3.988620392192388e-06 4.593171524902573e-06 -3.988620392192388e-06 -0.00033193061244674027" pbc="T T T"
Pt      -0.00000012      -0.00000004      19.95723457        4       0.00000000      -0.00012556       0.00040516       0.01315240
Pt       2.80721395      -0.00000016      19.95723462        4       0.00000000      -0.00239533      -0.00470852       0.01712037
Pt       5.61442787      -0.00000009      19.95723469        4       0.00000000       0.00151790      -0.00300493       0.01961222
Pt       1.40360721       2.43111844      19.95723450        4       0.00000000      -0.00448708       0.00041476       0.01942056
Pt       4.21082082       2.43111841      19.95723461        4       0.00000000      -0.00053583       0.00014343       0.02545848
Pt       7.01803480       2.43111847      19.95723446        4       0.00000000       0.00499843       0.00125068       0.01730167
Pt       2.80721415       4.86223736      19.95723430        4       0.00000000      -0.00335980       0.00443323       0.01717054
Pt       5.61442796       4.86223738      19.95723451        4       0.00000000       0.00148861       0.00371400       0.01950143
Pt       8.42164141       4.86223712      19.95723445        4       0.00000000       0.00014662      -0.00014782      -0.03688056
Pt       1.40360727       0.81037260      22.29206796        3       0.00000000      -0.00172426      -0.00209729      -0.00287390
Pt       4.21082131       0.81037250      22.29206795        3       0.00000000       0.00309814      -0.01044218      -0.06633492
Pt       7.01803474       0.81037257      22.29206787        3       0.00000000       0.00155377       0.00281171      -0.00564695
Pt       2.80721448       3.24149122      22.29206776        3       0.00000000      -0.01293576       0.00344846      -0.06662378
Pt       5.61442763       3.24149122      22.29206790        3       0.00000000       0.00616965       0.01019089      -0.06603576
Pt       8.42164153       3.24149129      22.29206804        3       0.00000000      -0.00291453       0.07672978      -0.14930716
Pt       4.21082092       5.67260997      22.29206741        3       0.00000000      -0.00409907       0.00361739      -0.00159572
Pt       7.01803486       5.67261038      22.29206784        3       0.00000000       0.06638773      -0.03568947      -0.15138109
Pt       9.82524821       5.67261064      22.29206811        3       0.00000000      -0.06497955      -0.03781712      -0.15235634
Pt      -0.00000055       1.62074564      24.58417373        2       0.00000000       0.00675707      -0.24420828       0.25231764
Pt       2.80721438       1.62074544      24.58417388        2       0.00000000      -0.00748429      -0.00697683      -0.01570697
Pt       5.61442780       1.62074536      24.58417376        2       0.00000000       0.01202750      -0.00798338      -0.01747486
Pt       1.40360636       4.05186448      24.58417388        2       0.00000000      -0.01165073      -0.00696142      -0.03769497
Pt       4.21082089       4.05186396      24.58417385        2       0.00000000       0.00890596       0.00823542      -0.01008420
Pt       7.01803505       4.05186407      24.58417401        2       0.00000000       0.01523915       0.00806997      -0.04567078
Pt       2.80721273       6.48298345      24.58417382        2       0.00000000       0.21562174       0.11327045       0.25161231
Pt       5.61442806       6.48298330      24.58417394        2       0.00000000      -0.20952050       0.11656659       0.25374591
Pt       8.42164223       6.48298339      24.58417374        2       0.00000000       0.00481564      -0.01505690      -0.04226594
Pt       0.00478698      -0.00652969      27.14332828        1       0.00000000      -0.00904300       0.00215187      -0.01378362
Pt       2.80439346      -0.00852713      26.89783335        1       0.00000000       0.03563064      -0.00619980      -0.00133144
Pt       5.62052698      -0.00479487      26.89738376        1       0.00000000      -0.00818888      -0.01155950      -0.00246066
Pt       1.40841616       2.42224435      26.90356060        1       0.00000000      -0.01334943       0.03100448      -0.01726244
Pt       4.21492748       2.42449915      26.90653052        1       0.00000000       0.00392256       0.00854039      -0.00286746
Pt       7.02922947       2.42823691      26.89606017        1       0.00000000      -0.00678050       0.00934327       0.00216062
Pt       2.80918454       4.85755086      26.89706261        1       0.00000000      -0.00806861       0.00249981      -0.00230362
Pt       5.62464823       4.85820909      26.90093056        1       0.00000000      -0.01255351      -0.00316884      -0.01174918
Pt       8.42878406       4.86040734      26.91489758        1       0.00000000      -0.00415117      -0.01056855      -0.00928089
C       -0.00027995      -0.00922008      29.22469616        0       1.00000000      -0.01947854       0.00911551       0.01800368
H        0.96320130       0.39128940      29.57219830        0       0.00000000       0.00169758       0.01164079      -0.00113534
H       -0.13554340      -1.04598802      29.56421516        0       0.00000000       0.00172976      -0.02461484       0.00648202
H       -0.83421927       0.62214086      29.56626837        0       0.00000000       0.01611764       0.00360748      -0.00295126
