40
Lattice="8.421641763931781 0.0 0.0 4.2108208819658905 7.293355709136913 0.0 0.0 0.0 46.87624170604845" Properties=species:S:1:pos:R:3:tags:I:1:initial_magmoms:R:1:forces:R:3 charge=0 spin=0 energy=-206.8948681528064 free_energy=-206.8948681528064 stress="0.010369871743023396 -2.0750444207351393e-07 5.1430110943329055e-06 -2.0750444207351393e-07 0.010313269682228565 -3.1454567306354875e-06 5.1430110943329055e-06 -3.1454567306354875e-06 -0.00033789759618230164" pbc="T T T"
Pt      -0.00000012      -0.00000004      19.95723457        4       0.00000000      -0.00013523      -0.00069366       0.01318099
Pt       2.80721395      -0.00000016      19.95723462        4       0.00000000      -0.00136623      -0.00603348       0.01718581
Pt       5.61442787      -0.00000009      19.95723469        4       0.00000000       0.00198404      -0.00451497       0.01937465
Pt       1.40360721       2.43111844      19.95723450        4       0.00000000      -0.00389659      -0.00080472       0.01943960
Pt       4.21082082       2.43111841      19.95723461        4       0.00000000      -0.00015404      -0.00096562       0.02532493
Pt       7.01803480       2.43111847      19.95723446        4       0.00000000       0.00541969      -0.00030421       0.01711980
Pt       2.80721415       4.86223736      19.95723430        4       0.00000000      -0.00294032       0.00308307       0.01748284
Pt       5.61442796       4.86223738      19.95723451        4       0.00000000       0.00222894       0.00229927       0.01939617
Pt       8.42164141       4.86223712      19.95723445        4       0.00000000      -0.00006516      -0.00036105      -0.03692920
Pt       1.40360727       0.81037260      22.29206796        3       0.00000000      -0.00116167      -0.00691815      -0.00500090
Pt       4.21082131       0.81037250      22.29206795        3       0.00000000       0.00388821      -0.01471259      -0.06535995
Pt       7.01803474       0.81037257      22.29206787        3       0.00000000       0.00412119      -0.00179049      -0.00275229
Pt       2.80721448       3.24149122      22.29206776        3       0.00000000      -0.01230727      -0.00126694      -0.06653136
Pt       5.61442763       3.24149122      22.29206790        3       0.00000000       0.00756742       0.00532718      -0.06730610
Pt       8.42164153       3.24149129      22.29206804        3       0.00000000      -0.00179684       0.07225023      -0.15073970
Pt       4.21082092       5.67260997      22.29206741        3       0.00000000      -0.00298174      -0.00192452      -0.00529560
Pt       7.01803486       5.67261038      22.29206784        3       0.00000000       0.06623513      -0.03979474      -0.14829355
Pt       9.82524821       5.67261064      22.29206811        3       0.00000000      -0.06403966      -0.04259444      -0.14955983
Pt      -0.00000055       1.62074564      24.58417373        2       0.00000000      -0.00081290      -0.23462105       0.26695466
Pt       2.80721438       1.62074544      24.58417388        2       0.00000000      -0.00804884       0.00951933      -0.00830253
Pt       5.61442780       1.62074536      24.58417376        2       0.00000000       0.00636793       0.00665534      -0.02909991
Pt       1.40360636       4.05186448      24.58417388        2       0.00000000      -0.01315565       0.01293278      -0.05233033
Pt       4.21082089       4.05186396      24.58417385        2       0.00000000       0.00014793       0.02145451      -0.00846154
Pt       7.01803505       4.05186407      24.58417401        2       0.00000000       0.01288095       0.02603746      -0.04868615
Pt       2.80721273       6.48298345      24.58417382        2       0.00000000       0.20701995       0.13232751       0.24497889
Pt       5.61442806       6.48298330      24.58417394        2       0.00000000      -0.20173086       0.12974799       0.24779016
Pt       8.42164223       6.48298339      24.58417374        2       0.00000000      -0.00177712      -0.00265714      -0.04955146
Pt       0.00269151       0.00102046      27.13829412        1       0.00000000      -0.00918363       0.03987843       0.01686501
Pt       2.80471628       0.01100513      26.90006987        1       0.00000000       0.01449184      -0.00618899      -0.01327716
Pt       5.61049777       0.01686010      26.89611518        1       0.00000000       0.01915169      -0.02200554       0.01532280
Pt       1.40256134       2.44768392      26.89839989        1       0.00000000      -0.01027337      -0.02057279      -0.00602473
Pt       4.21529220       2.44653564      26.90899096        1       0.00000000      -0.02749605      -0.00489289      -0.00814678
Pt       7.01821245       2.44784322      26.89627625        1       0.00000000       0.02957440      -0.01253888      -0.00176861
Pt       2.79968005       4.88219210      26.89779679        1       0.00000000       0.01262788      -0.03163473      -0.00548916
Pt       5.61965584       4.87509498      26.89991022        1       0.00000000      -0.00505168       0.00208983      -0.00439312
Pt       8.42646961       4.87950340      26.91495209        1       0.00000000      -0.02052819      -0.02136798      -0.00467838
C        0.00758172       0.00585108      29.22262225        0       1.00000000      -0.02420048       0.02201635      -0.02958378
H        1.05253702       0.01354723      29.56225154        0       0.00000000       0.02893300      -0.00464558       0.01450255
H       -0.51397929      -0.89380269      29.57825699        0       0.00000000      -0.00184836      -0.03826754      -0.01529987
H       -0.51789641       0.91226351      29.55370540        0       0.00000000      -0.00768823       0.03645331       0.02794299
