40
Lattice="8.421641763931781 0.0 0.0 4.2108208819658905 7.293355709136913 0.0 0.0 0.0 46.87624170604845" Properties=species:S:1:pos:R:3:tags:I:1:initial_magmoms:R:1:forces:R:3 charge=0 spin=0 energy=-206.89431502170288 free_energy=-206.89431502170288 stress="0.010363919660449028 -9.260854312742595e-06 -7.692725375818554e-06 -9.260854312742595e-06 0.010265401564538479 1.41755081131123e-05 -7.692725375818554e-06 1.41755081131123e-05 -0.00041088281432166696" pbc="T T T"
Pt      -0.00000012      -0.00000004      19.95723457        4       0.00000000       0.00009471      -0.00161602       0.01313438
Pt       2.80721395      -0.00000016      19.95723462        4       0.00000000      -0.00133416      -0.00667531       0.01696265
Pt       5.61442787      -0.00000009      19.95723469        4       0.00000000       0.00217896      -0.00478082       0.01926121
Pt       1.40360721       2.43111844      19.95723450        4       0.00000000      -0.00380534      -0.00139733       0.01933811
Pt       4.21082082       2.43111841      19.95723461        4       0.00000000       0.00023327      -0.00147315       0.02518447
Pt       7.01803480       2.43111847      19.95723446        4       0.00000000       0.00554908      -0.00071380       0.01723363
Pt       2.80721415       4.86223736      19.95723430        4       0.00000000      -0.00333111       0.00255134       0.01756301
Pt       5.61442796       4.86223738      19.95723451        4       0.00000000       0.00225333       0.00160529       0.01940357
Pt       8.42164141       4.86223712      19.95723445        4       0.00000000      -0.00009023       0.00025264      -0.03693849
Pt       1.40360727       0.81037260      22.29206796        3       0.00000000      -0.00067380      -0.01029796      -0.00490931
Pt       4.21082131       0.81037250      22.29206795        3       0.00000000       0.00380241      -0.01633687      -0.06728687
Pt       7.01803474       0.81037257      22.29206787        3       0.00000000       0.00473530      -0.00349674      -0.00192272
Pt       2.80721448       3.24149122      22.29206776        3       0.00000000      -0.01207715      -0.00421296      -0.06545634
Pt       5.61442763       3.24149122      22.29206790        3       0.00000000       0.00830543       0.00321245      -0.06690413
Pt       8.42164153       3.24149129      22.29206804        3       0.00000000      -0.00160123       0.07221082      -0.15141505
Pt       4.21082092       5.67260997      22.29206741        3       0.00000000      -0.00249273      -0.00440843      -0.00638494
Pt       7.01803486       5.67261038      22.29206784        3       0.00000000       0.06453907      -0.04070878      -0.14833584
Pt       9.82524821       5.67261064      22.29206811        3       0.00000000      -0.06454462      -0.04417123      -0.14668123
Pt      -0.00000055       1.62074564      24.58417373        2       0.00000000      -0.00767176      -0.22906765       0.26163816
Pt       2.80721438       1.62074544      24.58417388        2       0.00000000      -0.00707680       0.02205345      -0.02659482
Pt       5.61442780       1.62074536      24.58417376        2       0.00000000       0.00742649       0.01293102      -0.01539372
Pt       1.40360636       4.05186448      24.58417388        2       0.00000000      -0.01587244       0.02482348      -0.06182524
Pt       4.21082089       4.05186396      24.58417385        2       0.00000000      -0.00226902       0.03094211      -0.02653876
Pt       7.01803505       4.05186407      24.58417401        2       0.00000000       0.01263843       0.02736740      -0.05839531
Pt       2.80721273       6.48298345      24.58417382        2       0.00000000       0.20057094       0.13593222       0.24161299
Pt       5.61442806       6.48298330      24.58417394        2       0.00000000      -0.20580974       0.14228266       0.23477522
Pt       8.42164223       6.48298339      24.58417374        2       0.00000000       0.01142596      -0.00053527      -0.05728600
Pt      -0.00537179       0.01761347      27.13490765        1       0.00000000       0.00835629      -0.00071820       0.00683793
Pt       2.81235167       0.02174504      26.89163998        1       0.00000000      -0.01660083      -0.01616411       0.01670378
Pt       5.61282848       0.02346270      26.89851046        1       0.00000000       0.00212846      -0.01691147       0.00467251
Pt       1.39917139       2.45437496      26.89445472        1       0.00000000      -0.00233982      -0.02396752       0.01220268
Pt       4.21132780       2.46258166      26.90767437        1       0.00000000      -0.00616724      -0.04049882      -0.00136138
Pt       7.01875441       2.45906227      26.89987753        1       0.00000000       0.00646838      -0.02303766      -0.01141555
Pt       2.79817569       4.88506094      26.89813449        1       0.00000000       0.00979742      -0.00140695      -0.00507183
Pt       5.61724852       4.88732147      26.89415923        1       0.00000000      -0.00413129       0.00035633       0.01539487
Pt       8.42154702       4.88388629      26.91468068        1       0.00000000      -0.00445232      -0.00094647      -0.00103450
C        0.00039370       0.01197120      29.21787395        0       1.00000000       0.04225708       0.01181734      -0.01223421
H       -0.50742413       0.92437364      29.55953992        0       0.00000000      -0.00746400       0.03767599       0.02134273
H        1.04988098      -0.00078741      29.54673530        0       0.00000000      -0.00540815       0.00719711       0.02715588
H       -0.52980928      -0.88243734      29.57316635        0       0.00000000      -0.01754705      -0.03966832      -0.01703146
