40
Lattice="8.421641763931781 0.0 0.0 4.2108208819658905 7.293355709136913 0.0 0.0 0.0 46.87624170604845" Properties=species:S:1:pos:R:3:tags:I:1:initial_magmoms:R:1:forces:R:3 charge=0 spin=0 energy=-206.1544239694568 free_energy=-206.1544239694568 stress="0.010451644659042358 1.0559238944551907e-05 -1.4511846529785544e-05 1.0559238944551907e-05 0.009673094376921654 7.586052379338071e-05 -1.4511846529785544e-05 7.586052379338071e-05 -0.0003190605784766376" pbc="T T T"
Pt      -0.00000012      -0.00000004      19.95723457        4       0.00000000       0.00168517       0.00169667       0.01681868
Pt       2.80721395      -0.00000016      19.95723462        4       0.00000000      -0.00037319       0.00071735       0.01624489
Pt       5.61442787      -0.00000009      19.95723469        4       0.00000000       0.00051819      -0.00712948       0.02622052
Pt       1.40360721       2.43111844      19.95723450        4       0.00000000      -0.00100106       0.00318672       0.02291575
Pt       4.21082082       2.43111841      19.95723461        4       0.00000000      -0.00013148       0.00352433       0.02219580
Pt       7.01803480       2.43111847      19.95723446        4       0.00000000       0.00129319       0.00447615       0.01942599
Pt       2.80721415       4.86223736      19.95723430        4       0.00000000       0.01560837      -0.00059426      -0.00201055
Pt       5.61442796       4.86223738      19.95723451        4       0.00000000      -0.00110237       0.00512181       0.01304061
Pt       8.42164141       4.86223712      19.95723445        4       0.00000000      -0.01581114       0.00166280      -0.00188341
Pt       1.40360727       0.81037260      22.29206796        3       0.00000000       0.00283556       0.02051310      -0.03324308
Pt       4.21082131       0.81037250      22.29206795        3       0.00000000       0.00196399      -0.00280719      -0.03991056
Pt       7.01803474       0.81037257      22.29206787        3       0.00000000       0.00213491       0.00513990      -0.03814182
Pt       2.80721448       3.24149122      22.29206776        3       0.00000000      -0.00220781       0.04161191      -0.08968650
Pt       5.61442763       3.24149122      22.29206790        3       0.00000000      -0.00086506       0.01226677      -0.06847887
Pt       8.42164153       3.24149129      22.29206804        3       0.00000000       0.00233780       0.04294905      -0.08915105
Pt       4.21082092       5.67260997      22.29206741        3       0.00000000      -0.02307504      -0.00440423      -0.06645676
Pt       7.01803486       5.67261038      22.29206784        3       0.00000000       0.02208083      -0.00106300      -0.06683923
Pt       9.82524821       5.67261064      22.29206811        3       0.00000000       0.00296770      -0.04096008      -0.10674840
Pt      -0.00000055       1.62074564      24.58417373        2       0.00000000      -0.04761580      -0.14938614       0.05014432
Pt       2.80721438       1.62074544      24.58417388        2       0.00000000       0.04662891      -0.15160935       0.04668739
Pt       5.61442780       1.62074536      24.58417376        2       0.00000000      -0.00572523      -0.02341821      -0.02787614
Pt       1.40360636       4.05186448      24.58417388        2       0.00000000      -0.00296094       0.05209471      -0.18329193
Pt       4.21082089       4.05186396      24.58417385        2       0.00000000      -0.04367336      -0.04879633      -0.09780148
Pt       7.01803505       4.05186407      24.58417401        2       0.00000000       0.04912407      -0.04351668      -0.09893835
Pt       2.80721273       6.48298345      24.58417382        2       0.00000000       0.19553857       0.09871844       0.30340570
Pt       5.61442806       6.48298330      24.58417394        2       0.00000000       0.00610672       0.03654899       0.08080629
Pt       8.42164223       6.48298339      24.58417374        2       0.00000000      -0.20738414       0.11743740       0.31554654
Pt       0.01455360      -0.04768121      26.99717770        1       0.00000000       0.01840750      -0.00807678       0.02109998
Pt       2.78873703      -0.04737168      27.00188603        1       0.00000000      -0.03293859      -0.00556072       0.03284842
Pt       5.61424300      -0.03769934      26.90342536        1       0.00000000      -0.00494804       0.03158306       0.01231150
Pt       1.40225315       2.45551125      26.86779229        1       0.00000000      -0.00136911       0.02329533      -0.00451826
Pt       4.21327353       2.38814504      26.91311120        1       0.00000000      -0.01727491       0.01793155      -0.00103804
Pt       7.01357416       2.38817781      26.91282112        1       0.00000000       0.01231462       0.01704332      -0.00242853
Pt       2.80801567       4.83193415      26.91347511        1       0.00000000      -0.01317534       0.00497725       0.01758806
Pt       5.61377012       4.77922534      26.88506640        1       0.00000000      -0.00004100      -0.03285269      -0.00432081
Pt       8.41949005       4.83340649      26.91274327        1       0.00000000       0.01154793       0.00471568       0.01693193
C        1.40865329       0.09001037      28.88429777        0       1.00000000       0.01264235      -0.01651565      -0.01138907
H        1.40578157       1.11743743      29.26369035        0       0.00000000       0.00681869       0.02178745      -0.00282400
H        2.28596418      -0.47361710      29.26003557        0       0.00000000       0.01477041      -0.01793982       0.01458465
H        0.52507444      -0.47132982      29.25065684        0       0.00000000      -0.00565204      -0.01436911      -0.01184019
