40
Lattice="8.421641763931781 0.0 0.0 4.2108208819658905 7.293355709136913 0.0 0.0 0.0 46.87624170604845" Properties=species:S:1:pos:R:3:tags:I:1:initial_magmoms:R:1:forces:R:3 charge=0 spin=0 energy=-206.89630629367554 free_energy=-206.89630629367554 stress="0.010366015136241913 -1.324808818026213e-05 -6.241124083317118e-06 -1.324808818026213e-05 0.010378802195191383 -2.6399055059300736e-05 -6.241124083317118e-06 -2.6399055059300736e-05 -0.0003212580631952733" pbc="T T T"
Pt      -0.00000012      -0.00000004      19.95723457        4       0.00000000       0.00037087       0.00040310       0.01341532
Pt       2.80721395      -0.00000016      19.95723462        4       0.00000000      -0.00145328      -0.00507858       0.01707788
Pt       5.61442787      -0.00000009      19.95723469        4       0.00000000       0.00240290      -0.00336444       0.01926305
Pt       1.40360721       2.43111844      19.95723450        4       0.00000000      -0.00396553       0.00037683       0.01950646
Pt       4.21082082       2.43111841      19.95723461        4       0.00000000       0.00048660      -0.00006932       0.02538121
Pt       7.01803480       2.43111847      19.95723446        4       0.00000000       0.00590928       0.00103773       0.01731017
Pt       2.80721415       4.86223736      19.95723430        4       0.00000000      -0.00289362       0.00405137       0.01764086
Pt       5.61442796       4.86223738      19.95723451        4       0.00000000       0.00273157       0.00331009       0.01941905
Pt       8.42164141       4.86223712      19.95723445        4       0.00000000      -0.00006069       0.00093731      -0.03676254
Pt       1.40360727       0.81037260      22.29206796        3       0.00000000       0.00116512      -0.00330258      -0.00537573
Pt       4.21082131       0.81037250      22.29206795        3       0.00000000       0.00595079      -0.01165601      -0.06790289
Pt       7.01803474       0.81037257      22.29206787        3       0.00000000       0.00512962       0.00115974      -0.00238651
Pt       2.80721448       3.24149122      22.29206776        3       0.00000000      -0.01001324       0.00184823      -0.06604445
Pt       5.61442763       3.24149122      22.29206790        3       0.00000000       0.00886637       0.00892082      -0.06577698
Pt       8.42164153       3.24149129      22.29206804        3       0.00000000       0.00000467       0.07663507      -0.15002023
Pt       4.21082092       5.67260997      22.29206741        3       0.00000000      -0.00110207       0.00160118      -0.00459374
Pt       7.01803486       5.67261038      22.29206784        3       0.00000000       0.06705733      -0.03525166      -0.14917463
Pt       9.82524821       5.67261064      22.29206811        3       0.00000000      -0.06306981      -0.03937368      -0.15087490
Pt      -0.00000055       1.62074564      24.58417373        2       0.00000000      -0.00863232      -0.24818935       0.27515870
Pt       2.80721438       1.62074544      24.58417388        2       0.00000000      -0.02125392       0.00025792      -0.01748351
Pt       5.61442780       1.62074536      24.58417376        2       0.00000000       0.01172003      -0.00260059      -0.01994663
Pt       1.40360636       4.05186448      24.58417388        2       0.00000000      -0.02036346      -0.00034965      -0.04798051
Pt       4.21082089       4.05186396      24.58417385        2       0.00000000      -0.00649214       0.01385574      -0.01395074
Pt       7.01803505       4.05186407      24.58417401        2       0.00000000       0.00899339       0.00421246      -0.05496323
Pt       2.80721273       6.48298345      24.58417382        2       0.00000000       0.20486854       0.12181587       0.25691926
Pt       5.61442806       6.48298330      24.58417394        2       0.00000000      -0.21231247       0.12237021       0.24960092
Pt       8.42164223       6.48298339      24.58417374        2       0.00000000      -0.00297272      -0.01599457      -0.05040788
Pt      -0.00671453      -0.00863220      27.14516686        1       0.00000000       0.00365532       0.01675091      -0.00971163
Pt       2.80032987       0.00040440      26.89701896        1       0.00000000      -0.00685686      -0.01773475       0.00239961
Pt       5.60360244       0.00276460      26.89694288        1       0.00000000       0.02772268      -0.02313067       0.00569759
Pt       1.39376274       2.43351141      26.90120807        1       0.00000000      -0.00521606      -0.01398432      -0.00816177
Pt       4.20543092       2.42952809      26.90494421        1       0.00000000      -0.00715824       0.01311845       0.00564854
Pt       7.01568675       2.43418428      26.90120247        1       0.00000000       0.01297563      -0.01733966      -0.00533423
Pt       2.79307520       4.86438071      26.89763250        1       0.00000000       0.01086618      -0.00082509      -0.01159051
Pt       5.61496520       4.85868656      26.89727732        1       0.00000000      -0.01637511       0.01931900      -0.00360283
Pt       8.41280777       4.86330376      26.91396793        1       0.00000000       0.01340012      -0.00259420      -0.00033104
C       -0.00328862      -0.05897669      29.22737297        0       1.00000000      -0.02658862       0.00827223       0.00641561
H       -0.85380726       0.53941149      29.58697562        0       0.00000000       0.00729816       0.00255794      -0.01339918
H        0.94848726       0.36217680      29.58222129        0       0.00000000       0.01122454       0.01037156      -0.00727176
H       -0.10627367      -1.10823148      29.54147623        0       0.00000000       0.00398060       0.00765547       0.01219401
