40
Lattice="8.421641763931781 0.0 0.0 4.2108208819658905 7.293355709136913 0.0 0.0 0.0 46.87624170604845" Properties=species:S:1:pos:R:3:tags:I:1:initial_magmoms:R:1:forces:R:3 charge=0 spin=0 energy=-206.1541054422351 free_energy=-206.1541054422351 stress="0.010495271533727646 1.3042857062828261e-05 1.0793264664243907e-05 1.3042857062828261e-05 0.009710769169032574 5.175708429305814e-05 1.0793264664243907e-05 5.175708429305814e-05 -0.00025182755780406296" pbc="T T T"
Pt      -0.00000012      -0.00000004      19.95723457        4       0.00000000       0.00174631       0.00074594       0.01678965
Pt       2.80721395      -0.00000016      19.95723462        4       0.00000000      -0.00053845      -0.00052494       0.01613904
Pt       5.61442787      -0.00000009      19.95723469        4       0.00000000       0.00065157      -0.00770114       0.02619541
Pt       1.40360721       2.43111844      19.95723450        4       0.00000000      -0.00075853       0.00245563       0.02315539
Pt       4.21082082       2.43111841      19.95723461        4       0.00000000      -0.00030615       0.00211804       0.02248015
Pt       7.01803480       2.43111847      19.95723446        4       0.00000000       0.00171006       0.00306068       0.01942380
Pt       2.80721415       4.86223736      19.95723430        4       0.00000000       0.01501223      -0.00047277      -0.00141461
Pt       5.61442796       4.86223738      19.95723451        4       0.00000000      -0.00105394       0.00413338       0.01339583
Pt       8.42164141       4.86223712      19.95723445        4       0.00000000      -0.01590839       0.00144112      -0.00235334
Pt       1.40360727       0.81037260      22.29206796        3       0.00000000       0.00285641       0.01708352      -0.02952274
Pt       4.21082131       0.81037250      22.29206795        3       0.00000000       0.00164889      -0.00697568      -0.03920606
Pt       7.01803474       0.81037257      22.29206787        3       0.00000000       0.00271610       0.00059470      -0.03529008
Pt       2.80721448       3.24149122      22.29206776        3       0.00000000      -0.00309027       0.03863261      -0.08807281
Pt       5.61442763       3.24149122      22.29206790        3       0.00000000      -0.00081977       0.00786372      -0.07089905
Pt       8.42164153       3.24149129      22.29206804        3       0.00000000       0.00169883       0.04174595      -0.09048261
Pt       4.21082092       5.67260997      22.29206741        3       0.00000000      -0.02325686      -0.00969542      -0.06536082
Pt       7.01803486       5.67261038      22.29206784        3       0.00000000       0.02196734      -0.00661723      -0.06918558
Pt       9.82524821       5.67261064      22.29206811        3       0.00000000      -0.00038052      -0.04378830      -0.11147948
Pt      -0.00000055       1.62074564      24.58417373        2       0.00000000      -0.04369144      -0.15336922       0.07909933
Pt       2.80721438       1.62074544      24.58417388        2       0.00000000       0.04142094      -0.14961119       0.06814063
Pt       5.61442780       1.62074536      24.58417376        2       0.00000000      -0.00574557      -0.01930753      -0.01142123
Pt       1.40360636       4.05186448      24.58417388        2       0.00000000      -0.00093353       0.05702808      -0.18250535
Pt       4.21082089       4.05186396      24.58417385        2       0.00000000      -0.05480291      -0.03402792      -0.10864946
Pt       7.01803505       4.05186407      24.58417401        2       0.00000000       0.05990352      -0.02822796      -0.11036039
Pt       2.80721273       6.48298345      24.58417382        2       0.00000000       0.19010015       0.12200456       0.33354983
Pt       5.61442806       6.48298330      24.58417394        2       0.00000000       0.00105981       0.05513965       0.08497887
Pt       8.42164223       6.48298339      24.58417374        2       0.00000000      -0.19056603       0.13579443       0.33071950
Pt       0.02429184      -0.03327676      27.00982426        1       0.00000000      -0.03489576      -0.00382481      -0.00900896
Pt       2.78604043      -0.03448799      27.00665313        1       0.00000000       0.03562312      -0.00200987      -0.00774244
Pt       5.61583587      -0.01442264      26.91189881        1       0.00000000      -0.00122032      -0.00548738      -0.03761090
Pt       1.40224129       2.46574544      26.87195738        1       0.00000000       0.00152595       0.01729313      -0.00782190
Pt       4.20903018       2.40760589      26.91139952        1       0.00000000      -0.00118114      -0.02510559       0.00608459
Pt       7.01724306       2.40749452      26.91070730        1       0.00000000       0.00464981      -0.02728512       0.00757241
Pt       2.80421064       4.84904936      26.91352770        1       0.00000000      -0.00062952       0.00990228       0.01202813
Pt       5.61373226       4.79078274      26.88016841        1       0.00000000       0.00207329      -0.02309332       0.00213767
Pt       8.42419674       4.84922587      26.91265232        1       0.00000000       0.00215288       0.01142122       0.01265033
C        1.40262172       0.04756113      28.89603639        0       1.00000000      -0.00405068       0.04284820      -0.01442695
H        0.52503159      -0.52646179      29.25266621        0       0.00000000      -0.03505455      -0.01890956       0.02589643
H        1.40312926       1.06543769      29.30115062        0       0.00000000      -0.00186706       0.01235228      -0.02233891
H        2.28237323      -0.52555985      29.24961879        0       0.00000000       0.03223443      -0.01762416       0.01471692
