40
Lattice="8.421641763931781 0.0 0.0 4.2108208819658905 7.293355709136913 0.0 0.0 0.0 46.87624170604845" Properties=species:S:1:pos:R:3:tags:I:1:initial_magmoms:R:1:forces:R:3 charge=0 spin=0 energy=-206.89217879123413 free_energy=-206.89217879123413 stress="0.010453025810420513 -1.1227167306060437e-05 1.8354525082031614e-06 -1.1227167306060437e-05 0.010326151736080647 5.7145036407746375e-05 1.8354525082031614e-06 5.7145036407746375e-05 -0.00034525126102380455" pbc="T T T"
Pt      -0.00000012      -0.00000004      19.95723457        4       0.00000000       0.00232899      -0.00579650       0.01881335
Pt       2.80721395      -0.00000016      19.95723462        4       0.00000000       0.00047875      -0.00201613       0.01296737
Pt       5.61442787      -0.00000009      19.95723469        4       0.00000000      -0.00121106      -0.00734791       0.01678613
Pt       1.40360721       2.43111844      19.95723450        4       0.00000000       0.00544858      -0.00215451       0.01721783
Pt       4.21082082       2.43111841      19.95723461        4       0.00000000      -0.00335157      -0.00249462       0.01936121
Pt       7.01803480       2.43111847      19.95723446        4       0.00000000       0.00004600      -0.00254465       0.02514257
Pt       2.80721415       4.86223736      19.95723430        4       0.00000000       0.00002860       0.00073027      -0.03673122
Pt       5.61442796       4.86223738      19.95723451        4       0.00000000      -0.00262087       0.00199788       0.01763882
Pt       8.42164141       4.86223712      19.95723445        4       0.00000000       0.00240506       0.00119985       0.01934568
Pt       1.40360727       0.81037260      22.29206796        3       0.00000000       0.00364423      -0.00740334      -0.00004127
Pt       4.21082131       0.81037250      22.29206795        3       0.00000000      -0.00069317      -0.01127256      -0.00125870
Pt       7.01803474       0.81037257      22.29206787        3       0.00000000       0.00489582      -0.01998957      -0.06638927
Pt       2.80721448       3.24149122      22.29206776        3       0.00000000      -0.00164096       0.07227110      -0.15693365
Pt       5.61442763       3.24149122      22.29206790        3       0.00000000      -0.01236282      -0.00732205      -0.06580734
Pt       8.42164153       3.24149129      22.29206804        3       0.00000000       0.00796603       0.00000703      -0.06751201
Pt       4.21082092       5.67260997      22.29206741        3       0.00000000      -0.06338763      -0.04779966      -0.14903472
Pt       7.01803486       5.67261038      22.29206784        3       0.00000000      -0.00178851      -0.00843706      -0.00807518
Pt       9.82524821       5.67261064      22.29206811        3       0.00000000       0.06459170      -0.04418014      -0.14785910
Pt      -0.00000055       1.62074564      24.58417373        2       0.00000000       0.00876080       0.03003797      -0.01646682
Pt       2.80721438       1.62074544      24.58417388        2       0.00000000      -0.00289315      -0.22307767       0.27409676
Pt       5.61442780       1.62074536      24.58417376        2       0.00000000      -0.01368599       0.02247491      -0.00495559
Pt       1.40360636       4.05186448      24.58417388        2       0.00000000       0.00648206       0.04012354      -0.04084898
Pt       4.21082089       4.05186396      24.58417385        2       0.00000000      -0.01012702       0.03245151      -0.04771708
Pt       7.01803505       4.05186407      24.58417401        2       0.00000000      -0.00125909       0.03696987      -0.01675498
Pt       2.80721273       6.48298345      24.58417382        2       0.00000000      -0.00465995       0.02446438      -0.04648497
Pt       5.61442806       6.48298330      24.58417394        2       0.00000000       0.20728645       0.14934857       0.23870108
Pt       8.42164223       6.48298339      24.58417374        2       0.00000000      -0.20289779       0.15516402       0.24836142
Pt       0.00090898       0.03618062      26.89843892        1       0.00000000      -0.03434929      -0.01706376      -0.00147618
Pt       2.79881984       0.03823123      27.14410353        1       0.00000000       0.03827022      -0.00987647      -0.01998012
Pt       5.60858684       0.03275399      26.90157409        1       0.00000000       0.01272408      -0.01266708      -0.00560389
Pt       1.40793793       2.47069628      26.89872498        1       0.00000000      -0.01034760      -0.01038013       0.00041393
Pt       4.20359266       2.47015358      26.90102974        1       0.00000000       0.01772059      -0.02003092      -0.01686590
Pt       7.01602701       2.46634876      26.90773825        1       0.00000000      -0.00414399      -0.01257955      -0.00564059
Pt       2.81014681       4.90653277      26.91138031        1       0.00000000      -0.02569546      -0.04202753       0.00496784
Pt       5.61191362       4.90253712      26.89892409        1       0.00000000      -0.00927866      -0.02901909      -0.00174662
Pt       8.41816300       4.89984429      26.90065002        1       0.00000000       0.02596015      -0.01942510      -0.02042182
C        2.79514212       0.01949941      29.22547812        0       1.00000000       0.02071064      -0.00217337       0.02305615
H        1.74723885       0.02141240      29.56002882        0       0.00000000       0.01000131      -0.00379146       0.01907548
H        3.32301461       0.91540424      29.58663995        0       0.00000000      -0.01409951      -0.01198294      -0.02889553
H        3.31159796      -0.89505033      29.55404203        0       0.00000000      -0.01925581       0.01561288       0.01755591
