40
Lattice="8.421641763931781 0.0 0.0 4.2108208819658905 7.293355709136913 0.0 0.0 0.0 46.87624170604845" Properties=species:S:1:pos:R:3:tags:I:1:initial_magmoms:R:1:forces:R:3 charge=0 spin=0 energy=-206.89486624545776 free_energy=-206.89486624545776 stress="0.01036988478153944 -2.151507203507208e-07 5.171350039745448e-06 -2.151507203507208e-07 0.010313414968550205 -3.1982388009055285e-06 5.171350039745448e-06 -3.1982388009055285e-06 -0.0003376059466972947" pbc="T T T"
Pt      -0.00000012      -0.00000004      19.95723457        4       0.00000000      -0.00013515      -0.00069457       0.01318126
Pt       2.80721395      -0.00000016      19.95723462        4       0.00000000      -0.00136735      -0.00603542       0.01718831
Pt       5.61442787      -0.00000009      19.95723469        4       0.00000000       0.00198253      -0.00451733       0.01937372
Pt       1.40360721       2.43111844      19.95723450        4       0.00000000      -0.00389610      -0.00080525       0.01943790
Pt       4.21082082       2.43111841      19.95723461        4       0.00000000      -0.00015541      -0.00096792       0.02532357
Pt       7.01803480       2.43111847      19.95723446        4       0.00000000       0.00541975      -0.00030336       0.01712283
Pt       2.80721415       4.86223736      19.95723430        4       0.00000000      -0.00294129       0.00308036       0.01748642
Pt       5.61442796       4.86223738      19.95723451        4       0.00000000       0.00223052       0.00229926       0.01939611
Pt       8.42164141       4.86223712      19.95723445        4       0.00000000      -0.00006443      -0.00035912      -0.03692871
Pt       1.40360727       0.81037260      22.29206796        3       0.00000000      -0.00116692      -0.00692116      -0.00499056
Pt       4.21082131       0.81037250      22.29206795        3       0.00000000       0.00388752      -0.01471669      -0.06535654
Pt       7.01803474       0.81037257      22.29206787        3       0.00000000       0.00412047      -0.00179601      -0.00275364
Pt       2.80721448       3.24149122      22.29206776        3       0.00000000      -0.01230781      -0.00126915      -0.06653383
Pt       5.61442763       3.24149122      22.29206790        3       0.00000000       0.00756096       0.00532288      -0.06730863
Pt       8.42164153       3.24149129      22.29206804        3       0.00000000      -0.00179773       0.07225151      -0.15073073
Pt       4.21082092       5.67260997      22.29206741        3       0.00000000      -0.00298705      -0.00193311      -0.00531604
Pt       7.01803486       5.67261038      22.29206784        3       0.00000000       0.06622957      -0.03979936      -0.14828010
Pt       9.82524821       5.67261064      22.29206811        3       0.00000000      -0.06403173      -0.04259654      -0.14955680
Pt      -0.00000055       1.62074564      24.58417373        2       0.00000000      -0.00082031      -0.23463854       0.26690885
Pt       2.80721438       1.62074544      24.58417388        2       0.00000000      -0.00804179       0.00942885      -0.00827070
Pt       5.61442780       1.62074536      24.58417376        2       0.00000000       0.00640195       0.00665509      -0.02909288
Pt       1.40360636       4.05186448      24.58417388        2       0.00000000      -0.01314816       0.01297124      -0.05243795
Pt       4.21082089       4.05186396      24.58417385        2       0.00000000       0.00014349       0.02149137      -0.00852321
Pt       7.01803505       4.05186407      24.58417401        2       0.00000000       0.01289855       0.02605302      -0.04875152
Pt       2.80721273       6.48298345      24.58417382        2       0.00000000       0.20698357       0.13232835       0.24501115
Pt       5.61442806       6.48298330      24.58417394        2       0.00000000      -0.20161761       0.12980056       0.24788189
Pt       8.42164223       6.48298339      24.58417374        2       0.00000000      -0.00185605      -0.00258635      -0.04944556
Pt       0.00270020       0.00103192      27.13826427        1       0.00000000      -0.00918208       0.03975497       0.01726835
Pt       2.80472583       0.01105539      26.90017701        1       0.00000000       0.01448373      -0.00634264      -0.01365402
Pt       5.61048444       0.01688524      26.89612202        1       0.00000000       0.01923075      -0.02204208       0.01527761
Pt       1.40255864       2.44771172      26.89836805        1       0.00000000      -0.01022064      -0.02069039      -0.00587583
Pt       4.21529911       2.44656142      26.90896191        1       0.00000000      -0.02746532      -0.00496528      -0.00803516
Pt       7.01824879       2.44787113      26.89628279        1       0.00000000       0.02943254      -0.01264000      -0.00179181
Pt       2.79967142       4.88217674      26.89780140        1       0.00000000       0.01272339      -0.03142660      -0.00550870
Pt       5.61967719       4.87509498      26.89988319        1       0.00000000      -0.00508607       0.00224111      -0.00431456
Pt       8.42648889       4.87952288      26.91493162        1       0.00000000      -0.02061374      -0.02127017      -0.00459517
C        0.00758076       0.00583167      29.22262931        0       1.00000000      -0.02421691       0.02200901      -0.02992152
H       -0.51398674      -0.89382181      29.57827360        0       0.00000000      -0.00189086      -0.03799747      -0.01540795
H       -0.51787474       0.91228435      29.55365147        0       0.00000000      -0.00766935       0.03621035       0.02806860
H        1.05253293       0.01350552      29.56226871        0       0.00000000       0.02895047      -0.00458338       0.01445552
