40
Lattice="8.421641763931781 0.0 0.0 4.2108208819658905 7.293355709136913 0.0 0.0 0.0 46.87624170604845" Properties=species:S:1:pos:R:3:tags:I:1:initial_magmoms:R:1:forces:R:3 charge=0 spin=0 energy=-206.89474989719116 free_energy=-206.89474989719116 stress="0.01036505214869976 -2.766083298411104e-06 -1.5098459016371635e-06 -2.766083298411104e-06 0.01031416654586792 -7.754683224447945e-07 -1.5098459016371635e-06 -7.754683224447945e-07 -0.0003387503675185144" pbc="T T T"
Pt      -0.00000012      -0.00000004      19.95723457        4       0.00000000       0.00169864      -0.00460976       0.01938235
Pt       2.80721395      -0.00000016      19.95723462        4       0.00000000       0.00039515      -0.00068496       0.01322117
Pt       5.61442787      -0.00000009      19.95723469        4       0.00000000      -0.00168875      -0.00601154       0.01715428
Pt       1.40360721       2.43111844      19.95723450        4       0.00000000       0.00529713       0.00001608       0.01735377
Pt       4.21082082       2.43111841      19.95723461        4       0.00000000      -0.00414036      -0.00094085       0.01906903
Pt       7.01803480       2.43111847      19.95723446        4       0.00000000       0.00043207      -0.00109455       0.02515705
Pt       2.80721415       4.86223736      19.95723430        4       0.00000000       0.00024472      -0.00035799      -0.03667110
Pt       5.61442796       4.86223738      19.95723451        4       0.00000000      -0.00331832       0.00293403       0.01753447
Pt       8.42164141       4.86223712      19.95723445        4       0.00000000       0.00195083       0.00242948       0.01934301
Pt       1.40360727       0.81037260      22.29206796        3       0.00000000       0.00314303      -0.00178424      -0.00478315
Pt       4.21082131       0.81037250      22.29206795        3       0.00000000      -0.00139326      -0.00685063      -0.00226503
Pt       7.01803474       0.81037257      22.29206787        3       0.00000000       0.00456827      -0.01398366      -0.06586353
Pt       2.80721448       3.24149122      22.29206776        3       0.00000000      -0.00193765       0.07256025      -0.14982879
Pt       5.61442763       3.24149122      22.29206790        3       0.00000000      -0.01186300      -0.00201283      -0.06795176
Pt       8.42164153       3.24149129      22.29206804        3       0.00000000       0.00719697       0.00580793      -0.06749803
Pt       4.21082092       5.67260997      22.29206741        3       0.00000000      -0.06464297      -0.04296790      -0.14753066
Pt       7.01803486       5.67261038      22.29206784        3       0.00000000      -0.00241423      -0.00213478      -0.00552358
Pt       9.82524821       5.67261064      22.29206811        3       0.00000000       0.06573720      -0.03985298      -0.14943545
Pt      -0.00000055       1.62074564      24.58417373        2       0.00000000       0.00796446       0.00757496      -0.00744725
Pt       2.80721438       1.62074544      24.58417388        2       0.00000000      -0.00417843      -0.23613222       0.26453391
Pt       5.61442780       1.62074536      24.58417376        2       0.00000000      -0.00752952       0.00647368      -0.02943276
Pt       1.40360636       4.05186448      24.58417388        2       0.00000000       0.01259006       0.01722745      -0.05663931
Pt       4.21082089       4.05186396      24.58417385        2       0.00000000      -0.01559761       0.02248780      -0.05102251
Pt       7.01803505       4.05186407      24.58417401        2       0.00000000       0.00047013       0.02131807      -0.00791265
Pt       2.80721273       6.48298345      24.58417382        2       0.00000000       0.00670963      -0.00203601      -0.05016787
Pt       5.61442806       6.48298330      24.58417394        2       0.00000000       0.20537263       0.12518543       0.25122234
Pt       8.42164223       6.48298339      24.58417374        2       0.00000000      -0.20458706       0.13886726       0.24492548
Pt       0.00153707       0.01205659      26.90069375        1       0.00000000      -0.00517484      -0.00374300      -0.01649602
Pt       2.80586076       0.00180021      27.13804036        1       0.00000000       0.00269087       0.03538488       0.01895486
Pt       5.61891909       0.01565330      26.89669489        1       0.00000000      -0.02087031      -0.02070390       0.01485878
Pt       1.40712314       2.44888866      26.89728442        1       0.00000000       0.00425712      -0.02636525      -0.00153136
Pt       4.21157775       2.44797766      26.89604703        1       0.00000000      -0.02541529      -0.01714043      -0.00045418
Pt       7.01321259       2.44595714      26.90937202        1       0.00000000       0.03127621      -0.00229111      -0.00841840
Pt       2.80291617       4.88009815      26.91480560        1       0.00000000       0.02169391      -0.02161610      -0.00292843
Pt       5.60783846       4.87461005      26.90008895        1       0.00000000       0.01123059       0.00958884      -0.00470465
Pt       8.43034876       4.88072694      26.89655573        1       0.00000000      -0.02506007      -0.02744932      -0.00183359
C        2.80113773       0.00784317      29.22267493        0       1.00000000       0.02573263       0.02019751      -0.03181762
H        3.32428340      -0.89109634      29.57773921        0       0.00000000       0.00711846      -0.03570908      -0.01345450
H        1.75655883       0.01257334      29.56314410        0       0.00000000      -0.03406950      -0.00239606       0.01267433
H        3.32451200       0.91565980      29.55372931        0       0.00000000       0.00611036       0.03081531       0.02622730
