40
Lattice="8.421641763931781 0.0 0.0 4.2108208819658905 7.293355709136913 0.0 0.0 0.0 46.87624170604845" Properties=species:S:1:pos:R:3:tags:I:1:initial_magmoms:R:1:forces:R:3 charge=0 spin=0 energy=-206.89400984592163 free_energy=-206.89400984592163 stress="0.01036648079752922 1.2905287576359115e-06 1.6120700820465572e-05 1.2905287576359115e-06 0.010263127274811268 2.258166205137968e-05 1.6120700820465572e-05 2.258166205137968e-05 -0.0004224197182338685" pbc="T T T"
Pt      -0.00000012      -0.00000004      19.95723457        4       0.00000000       0.00174785      -0.00542171       0.01914407
Pt       2.80721395      -0.00000016      19.95723462        4       0.00000000       0.00021821      -0.00169415       0.01309835
Pt       5.61442787      -0.00000009      19.95723469        4       0.00000000      -0.00173733      -0.00647919       0.01700159
Pt       1.40360721       2.43111844      19.95723450        4       0.00000000       0.00524001      -0.00091915       0.01742586
Pt       4.21082082       2.43111841      19.95723461        4       0.00000000      -0.00401858      -0.00155632       0.01907270
Pt       7.01803480       2.43111847      19.95723446        4       0.00000000      -0.00011982      -0.00157141       0.02516331
Pt       2.80721415       4.86223736      19.95723430        4       0.00000000       0.00048338       0.00026904      -0.03683743
Pt       5.61442796       4.86223738      19.95723451        4       0.00000000      -0.00324293       0.00216529       0.01752448
Pt       8.42164141       4.86223712      19.95723445        4       0.00000000       0.00249054       0.00184216       0.01936235
Pt       1.40360727       0.81037260      22.29206796        3       0.00000000       0.00275958      -0.00560919      -0.00436200
Pt       4.21082131       0.81037250      22.29206795        3       0.00000000      -0.00247880      -0.00894911      -0.00156903
Pt       7.01803474       0.81037257      22.29206787        3       0.00000000       0.00411403      -0.01660461      -0.06753165
Pt       2.80721448       3.24149122      22.29206776        3       0.00000000      -0.00227195       0.07265583      -0.15184256
Pt       5.61442763       3.24149122      22.29206790        3       0.00000000      -0.01276546      -0.00485940      -0.06719829
Pt       8.42164153       3.24149129      22.29206804        3       0.00000000       0.00703651       0.00246794      -0.06584068
Pt       4.21082092       5.67260997      22.29206741        3       0.00000000      -0.06326001      -0.04423663      -0.14769755
Pt       7.01803486       5.67261038      22.29206784        3       0.00000000      -0.00316223      -0.00535569      -0.00677743
Pt       9.82524821       5.67261064      22.29206811        3       0.00000000       0.06565158      -0.04157024      -0.14683354
Pt      -0.00000055       1.62074564      24.58417373        2       0.00000000       0.00714957       0.02443715      -0.02818307
Pt       2.80721438       1.62074544      24.58417388        2       0.00000000       0.00229288      -0.22674897       0.26192516
Pt       5.61442780       1.62074536      24.58417376        2       0.00000000      -0.00753408       0.01351513      -0.01435246
Pt       1.40360636       4.05186448      24.58417388        2       0.00000000       0.01464587       0.02915324      -0.06032467
Pt       4.21082089       4.05186396      24.58417385        2       0.00000000      -0.01426698       0.02538190      -0.05906312
Pt       7.01803505       4.05186407      24.58417401        2       0.00000000       0.00258627       0.03197869      -0.02825675
Pt       2.80721273       6.48298345      24.58417382        2       0.00000000      -0.00646316       0.00117709      -0.05891835
Pt       5.61442806       6.48298330      24.58417394        2       0.00000000       0.21122493       0.13907008       0.23332137
Pt       8.42164223       6.48298339      24.58417374        2       0.00000000      -0.19641379       0.14458074       0.24015434
Pt      -0.00386567       0.02530522      26.89077837        1       0.00000000       0.01585924      -0.01668257       0.02026116
Pt       2.81454895       0.02235900      27.13466278        1       0.00000000      -0.00825464      -0.00727620       0.00002582
Pt       5.61777086       0.02319403      26.89945004        1       0.00000000      -0.00412020      -0.01206815       0.00270523
Pt       1.40974728       2.45653972      26.89517149        1       0.00000000       0.00333852      -0.01914063       0.00954442
Pt       4.21255285       2.46080349      26.89953855        1       0.00000000      -0.00607635      -0.02407875      -0.01082807
Pt       7.01849920       2.46419758      26.90812516        1       0.00000000       0.00563265      -0.03915336      -0.00112867
Pt       2.80869181       4.88661990      26.91411349        1       0.00000000       0.00237898      -0.00557535      -0.00029268
Pt       5.61174068       4.89048481      26.89445655        1       0.00000000       0.00474447      -0.00170000       0.01494040
Pt       8.42960051       4.88675956      26.89667074        1       0.00000000      -0.00800848      -0.00351032      -0.00114173
C        2.80911688       0.01605948      29.21685080        0       1.00000000      -0.04162110       0.00938824       0.00361000
H        1.75922193      -0.00198686      29.54417144        0       0.00000000       0.00457034       0.00425934       0.03045891
H        3.31180825       0.92996506      29.56316829        0       0.00000000       0.00640762       0.02936528       0.00943176
H        3.34260568      -0.87740461      29.57038945        0       0.00000000       0.01524250      -0.03094600      -0.01519143
