40
Lattice="8.421641763931781 0.0 0.0 4.2108208819658905 7.293355709136913 0.0 0.0 0.0 46.87624170604845" Properties=species:S:1:pos:R:3:tags:I:1:initial_magmoms:R:1:forces:R:3 charge=0 spin=0 energy=-206.89474989719116 free_energy=-206.89474989719116 stress="0.010365051217377186 -2.7914190923183924e-06 -1.5285887684513e-06 -2.7914190923183924e-06 0.010314206592738628 -8.290309096992132e-07 -1.5285887684513e-06 -8.290309096992132e-07 -0.00033822114346548915" pbc="T T T"
Pt      -0.00000012      -0.00000004      19.95723457        4       0.00000000       0.00170070      -0.00460714       0.01938216
Pt       2.80721395      -0.00000016      19.95723462        4       0.00000000       0.00039365      -0.00068548       0.01322076
Pt       5.61442787      -0.00000009      19.95723469        4       0.00000000      -0.00168870      -0.00601089       0.01715617
Pt       1.40360721       2.43111844      19.95723450        4       0.00000000       0.00529614       0.00001714       0.01735474
Pt       4.21082082       2.43111841      19.95723461        4       0.00000000      -0.00413754      -0.00093899       0.01906835
Pt       7.01803480       2.43111847      19.95723446        4       0.00000000       0.00043004      -0.00109423       0.02515822
Pt       2.80721415       4.86223736      19.95723430        4       0.00000000       0.00024628      -0.00036086      -0.03667119
Pt       5.61442796       4.86223738      19.95723451        4       0.00000000      -0.00331580       0.00293447       0.01753384
Pt       8.42164141       4.86223712      19.95723445        4       0.00000000       0.00195013       0.00243123       0.01934238
Pt       1.40360727       0.81037260      22.29206796        3       0.00000000       0.00314365      -0.00177758      -0.00478298
Pt       4.21082131       0.81037250      22.29206795        3       0.00000000      -0.00139354      -0.00684745      -0.00227585
Pt       7.01803474       0.81037257      22.29206787        3       0.00000000       0.00456877      -0.01398076      -0.06586082
Pt       2.80721448       3.24149122      22.29206776        3       0.00000000      -0.00193694       0.07255481      -0.14983055
Pt       5.61442763       3.24149122      22.29206790        3       0.00000000      -0.01186275      -0.00201126      -0.06794432
Pt       8.42164153       3.24149129      22.29206804        3       0.00000000       0.00719668       0.00580933      -0.06750417
Pt       4.21082092       5.67260997      22.29206741        3       0.00000000      -0.06464037      -0.04296313      -0.14753810
Pt       7.01803486       5.67261038      22.29206784        3       0.00000000      -0.00241420      -0.00212961      -0.00550785
Pt       9.82524821       5.67261064      22.29206811        3       0.00000000       0.06574304      -0.03985395      -0.14943215
Pt      -0.00000055       1.62074564      24.58417373        2       0.00000000       0.00794379       0.00758131      -0.00739482
Pt       2.80721438       1.62074544      24.58417388        2       0.00000000      -0.00420388      -0.23613468       0.26451090
Pt       5.61442780       1.62074536      24.58417376        2       0.00000000      -0.00747715       0.00648962      -0.02934760
Pt       1.40360636       4.05186448      24.58417388        2       0.00000000       0.01260529       0.01724404      -0.05650762
Pt       4.21082089       4.05186396      24.58417385        2       0.00000000      -0.01558809       0.02247256      -0.05093078
Pt       7.01803505       4.05186407      24.58417401        2       0.00000000       0.00044285       0.02127421      -0.00789633
Pt       2.80721273       6.48298345      24.58417382        2       0.00000000       0.00666406      -0.00205210      -0.05010790
Pt       5.61442806       6.48298330      24.58417394        2       0.00000000       0.20537899       0.12514603       0.25118488
Pt       8.42164223       6.48298339      24.58417374        2       0.00000000      -0.20457835       0.13884661       0.24491829
Pt       0.00154801       0.01202044      26.90067212        1       0.00000000      -0.00527475      -0.00360947      -0.01644141
Pt       2.80587326       0.00175053      27.13802926        1       0.00000000       0.00251830       0.03556821       0.01923320
Pt       5.61888298       0.01564895      26.89670310        1       0.00000000      -0.02064549      -0.02073106       0.01479752
Pt       1.40712272       2.44887632      26.89729410        1       0.00000000       0.00424436      -0.02631344      -0.00159980
Pt       4.21155264       2.44793219      26.89604224        1       0.00000000      -0.02529662      -0.01696162      -0.00045782
Pt       7.01323758       2.44596564      26.90940891        1       0.00000000       0.03115632      -0.00242335      -0.00855848
Pt       2.80294729       4.88010560      26.91483794        1       0.00000000       0.02151443      -0.02170577      -0.00307041
Pt       5.60784978       4.87459821      26.90011288        1       0.00000000       0.01112604       0.00946555      -0.00476152
Pt       8.43031041       4.88072330      26.89655655        1       0.00000000      -0.02479463      -0.02755357      -0.00183396
C        2.80109336       0.00783457      29.22267231        0       1.00000000       0.02614299       0.02017170      -0.03158537
H        1.75654475       0.01258142      29.56320710        0       0.00000000      -0.03440605      -0.00243458       0.01249028
H        3.32447718       0.91563874      29.55373313        0       0.00000000       0.00616255       0.03105712       0.02612024
H        3.32425515      -0.89107070      29.57779872        0       0.00000000       0.00708591      -0.03588295      -0.01363009
