40
Lattice="8.421641763931781 0.0 0.0 4.2108208819658905 7.293355709136913 0.0 0.0 0.0 46.87624170604845" Properties=species:S:1:pos:R:3:tags:I:1:initial_magmoms:R:1:forces:R:3 charge=0 spin=0 energy=-206.15309454745972 free_energy=-206.15309454745972 stress="0.010531638748943806 1.0102180567628238e-05 -3.352357325070443e-08 1.0102180567628238e-05 0.009699760936200619 0.00012293188774492592 -3.352357325070443e-08 0.00012293188774492592 -0.00025282608112320304" pbc="T T T"
Pt      -0.00000012      -0.00000004      19.95723457        4       0.00000000       0.00093426      -0.00063924       0.01642748
Pt       2.80721395      -0.00000016      19.95723462        4       0.00000000      -0.00002856      -0.00214342       0.01559620
Pt       5.61442787      -0.00000009      19.95723469        4       0.00000000       0.00046137      -0.00835316       0.02645415
Pt       1.40360721       2.43111844      19.95723450        4       0.00000000      -0.00073925       0.00151278       0.02274097
Pt       4.21082082       2.43111841      19.95723461        4       0.00000000      -0.00005857       0.00093345       0.02325237
Pt       7.01803480       2.43111847      19.95723446        4       0.00000000       0.00086086       0.00229597       0.02003076
Pt       2.80721415       4.86223736      19.95723430        4       0.00000000       0.01495039       0.00178284      -0.00114864
Pt       5.61442796       4.86223738      19.95723451        4       0.00000000      -0.00088274       0.00410304       0.01336377
Pt       8.42164141       4.86223712      19.95723445        4       0.00000000      -0.01495239       0.00359498      -0.00277067
Pt       1.40360727       0.81037260      22.29206796        3       0.00000000       0.00296757       0.01782494      -0.02974795
Pt       4.21082131       0.81037250      22.29206795        3       0.00000000       0.00006176      -0.00705284      -0.03631641
Pt       7.01803474       0.81037257      22.29206787        3       0.00000000       0.00447145       0.00034366      -0.03377467
Pt       2.80721448       3.24149122      22.29206776        3       0.00000000      -0.00437045       0.04323019      -0.09398572
Pt       5.61442763       3.24149122      22.29206790        3       0.00000000      -0.00041254       0.00595192      -0.07056274
Pt       8.42164153       3.24149129      22.29206804        3       0.00000000       0.00318979       0.04561577      -0.09487677
Pt       4.21082092       5.67260997      22.29206741        3       0.00000000      -0.02136039      -0.01079941      -0.06552081
Pt       7.01803486       5.67261038      22.29206784        3       0.00000000       0.02084268      -0.00657623      -0.06686216
Pt       9.82524821       5.67261064      22.29206811        3       0.00000000       0.00128005      -0.04046548      -0.10853055
Pt      -0.00000055       1.62074564      24.58417373        2       0.00000000      -0.03937452      -0.14644556       0.07407805
Pt       2.80721438       1.62074544      24.58417388        2       0.00000000       0.03947069      -0.14255962       0.06553176
Pt       5.61442780       1.62074536      24.58417376        2       0.00000000      -0.00597101      -0.02038324      -0.01312474
Pt       1.40360636       4.05186448      24.58417388        2       0.00000000      -0.00269357       0.07248946      -0.19159941
Pt       4.21082089       4.05186396      24.58417385        2       0.00000000      -0.05338819      -0.02848081      -0.10509041
Pt       7.01803505       4.05186407      24.58417401        2       0.00000000       0.05675387      -0.01976143      -0.10649445
Pt       2.80721273       6.48298345      24.58417382        2       0.00000000       0.18488607       0.12331291       0.33430740
Pt       5.61442806       6.48298330      24.58417394        2       0.00000000       0.00569415       0.06895594       0.09024344
Pt       8.42164223       6.48298339      24.58417374        2       0.00000000      -0.19178779       0.13710228       0.33677948
Pt       0.02275724      -0.03218102      27.00845037        1       0.00000000      -0.04173416      -0.00853346      -0.00721507
Pt       2.78128640      -0.03281466      27.01142866        1       0.00000000       0.03763448      -0.00547758      -0.00931585
Pt       5.61400008      -0.01192525      26.91333390        1       0.00000000      -0.00060709      -0.00050386      -0.03819107
Pt       1.40283421       2.47131550      26.87009683        1       0.00000000      -0.00123532       0.00737791      -0.01362531
Pt       4.21003931       2.41175776      26.90948805        1       0.00000000      -0.00196060      -0.02836592       0.00469808
Pt       7.01716295       2.41313153      26.90902875        1       0.00000000       0.00122744      -0.03274326       0.00536582
Pt       2.80454602       4.85353965      26.91438036        1       0.00000000      -0.00334803       0.00842355       0.01323429
Pt       5.61418404       4.79899921      26.87992060        1       0.00000000      -0.00049113      -0.03533535       0.00792216
Pt       8.42474335       4.85497508      26.91398205        1       0.00000000       0.00063104       0.00830171       0.01333843
C        1.40430930      -0.04901741      28.90206681        0       1.00000000       0.00376663      -0.03280131      -0.01460036
H        2.28362084       0.52871633      29.24791241        0       0.00000000       0.02897801       0.01768793       0.02431244
H        1.40304315      -1.06126268      29.32067326        0       0.00000000       0.00079795      -0.01220633      -0.01941426
H        0.52518819       0.53038364      29.24610792        0       0.00000000      -0.02446427       0.01878639       0.01509082
