40
Lattice="8.421641763931781 0.0 0.0 4.2108208819658905 7.293355709136913 0.0 0.0 0.0 46.87624170604845" Properties=species:S:1:pos:R:3:tags:I:1:initial_magmoms:R:1:forces:R:3 charge=0 spin=0 energy=-206.15410353488647 free_energy=-206.15410353488647 stress="0.010495269671082497 1.304141005675774e-05 1.083185816241894e-05 1.304141005675774e-05 0.009710748679935932 5.17396219947841e-05 1.083185816241894e-05 5.17396219947841e-05 -0.0002518704568501562" pbc="T T T"
Pt      -0.00000012      -0.00000004      19.95723457        4       0.00000000       0.00174643       0.00074616       0.01678963
Pt       2.80721395      -0.00000016      19.95723462        4       0.00000000      -0.00053863      -0.00052536       0.01613908
Pt       5.61442787      -0.00000009      19.95723469        4       0.00000000       0.00065160      -0.00770140       0.02619547
Pt       1.40360721       2.43111844      19.95723450        4       0.00000000      -0.00075902       0.00245568       0.02315517
Pt       4.21082082       2.43111841      19.95723461        4       0.00000000      -0.00030631       0.00211808       0.02248011
Pt       7.01803480       2.43111847      19.95723446        4       0.00000000       0.00171037       0.00306096       0.01942323
Pt       2.80721415       4.86223736      19.95723430        4       0.00000000       0.01501182      -0.00047260      -0.00141427
Pt       5.61442796       4.86223738      19.95723451        4       0.00000000      -0.00105403       0.00413360       0.01339589
Pt       8.42164141       4.86223712      19.95723445        4       0.00000000      -0.01590923       0.00144086      -0.00235428
Pt       1.40360727       0.81037260      22.29206796        3       0.00000000       0.00285684       0.01708423      -0.02952057
Pt       4.21082131       0.81037250      22.29206795        3       0.00000000       0.00164906      -0.00697437      -0.03920978
Pt       7.01803474       0.81037257      22.29206787        3       0.00000000       0.00271514       0.00059510      -0.03528799
Pt       2.80721448       3.24149122      22.29206776        3       0.00000000      -0.00309015       0.03863136      -0.08807447
Pt       5.61442763       3.24149122      22.29206790        3       0.00000000      -0.00082050       0.00786414      -0.07090279
Pt       8.42164153       3.24149129      22.29206804        3       0.00000000       0.00169778       0.04174744      -0.09048332
Pt       4.21082092       5.67260997      22.29206741        3       0.00000000      -0.02325786      -0.00969611      -0.06535770
Pt       7.01803486       5.67261038      22.29206784        3       0.00000000       0.02196757      -0.00661754      -0.06918586
Pt       9.82524821       5.67261064      22.29206811        3       0.00000000      -0.00038413      -0.04378905      -0.11147977
Pt      -0.00000055       1.62074564      24.58417373        2       0.00000000      -0.04369249      -0.15337569       0.07909612
Pt       2.80721438       1.62074544      24.58417388        2       0.00000000       0.04140973      -0.14962023       0.06811706
Pt       5.61442780       1.62074536      24.58417376        2       0.00000000      -0.00573498      -0.01931668      -0.01143825
Pt       1.40360636       4.05186448      24.58417388        2       0.00000000      -0.00094219       0.05703732      -0.18250392
Pt       4.21082089       4.05186396      24.58417385        2       0.00000000      -0.05480533      -0.03401425      -0.10866833
Pt       7.01803505       4.05186407      24.58417401        2       0.00000000       0.05991948      -0.02821985      -0.11035457
Pt       2.80721273       6.48298345      24.58417382        2       0.00000000       0.19010912       0.12200762       0.33355871
Pt       5.61442806       6.48298330      24.58417394        2       0.00000000       0.00105598       0.05513972       0.08497496
Pt       8.42164223       6.48298339      24.58417374        2       0.00000000      -0.19056122       0.13578103       0.33072749
Pt       0.02429754      -0.03327677      27.00982885        1       0.00000000      -0.03490762      -0.00382581      -0.00900706
Pt       2.78604360      -0.03449077      27.00664843        1       0.00000000       0.03566273      -0.00201391      -0.00775868
Pt       5.61583804      -0.01442352      26.91189926        1       0.00000000      -0.00122215      -0.00548782      -0.03761343
Pt       1.40224094       2.46574696      26.87195607        1       0.00000000       0.00152428       0.01728396      -0.00781200
Pt       4.20902881       2.40760560      26.91138766        1       0.00000000      -0.00116640      -0.02511063       0.00613684
Pt       7.01724381       2.40749434      26.91070622        1       0.00000000       0.00465495      -0.02728684       0.00758168
Pt       2.80421076       4.84904967      26.91352771        1       0.00000000      -0.00062275       0.00991102       0.01202940
Pt       5.61373406       4.79078117      26.88016783        1       0.00000000       0.00207690      -0.02308618       0.00214825
Pt       8.42420104       4.84922471      26.91266272        1       0.00000000       0.00213679       0.01142778       0.01260815
C        1.40261339       0.04756373      28.89602631        0       1.00000000      -0.00400976       0.04273588      -0.01432437
H        2.28237072      -0.52555985      29.24960811        0       0.00000000       0.03212933      -0.01754931       0.01464216
H        0.52502888      -0.52646399      29.25266978        0       0.00000000      -0.03501919      -0.01887523       0.02589196
H        1.40312645       1.06543876      29.30114559        0       0.00000000      -0.00188196       0.01235718      -0.02234016
