40
Lattice="8.421641763931781 0.0 0.0 4.2108208819658905 7.293355709136913 0.0 0.0 0.0 46.87624170604845" Properties=species:S:1:pos:R:3:tags:I:1:initial_magmoms:R:1:forces:R:3 charge=0 spin=0 energy=-206.15260817355835 free_energy=-206.15260817355835 stress="0.010550767183303833 1.4742317944183014e-05 3.7471381801879033e-05 1.4742317944183014e-05 0.00966065376996994 0.00012730518938042223 3.7471381801879033e-05 0.00012730518938042223 -0.0002938935940619558" pbc="T T T"
Pt      -0.00000012      -0.00000004      19.95723457        4       0.00000000       0.00039977      -0.00102748       0.01651626
Pt       2.80721395      -0.00000016      19.95723462        4       0.00000000       0.00024191      -0.00261583       0.01566900
Pt       5.61442787      -0.00000009      19.95723469        4       0.00000000       0.00053446      -0.00916655       0.02574677
Pt       1.40360721       2.43111844      19.95723450        4       0.00000000      -0.00096565       0.00112916       0.02273724
Pt       4.21082082       2.43111841      19.95723461        4       0.00000000      -0.00020826      -0.00000902       0.02358600
Pt       7.01803480       2.43111847      19.95723446        4       0.00000000       0.00107092       0.00133903       0.01984562
Pt       2.80721415       4.86223736      19.95723430        4       0.00000000       0.01391729       0.00150968      -0.00008282
Pt       5.61442796       4.86223738      19.95723451        4       0.00000000      -0.00084184       0.00322488       0.01316532
Pt       8.42164141       4.86223712      19.95723445        4       0.00000000      -0.01546796       0.00313558      -0.00330082
Pt       1.40360727       0.81037260      22.29206796        3       0.00000000       0.00233606       0.01566825      -0.03131193
Pt       4.21082131       0.81037250      22.29206795        3       0.00000000      -0.00074223      -0.00938898      -0.03774963
Pt       7.01803474       0.81037257      22.29206787        3       0.00000000       0.00422886      -0.00171682      -0.03173232
Pt       2.80721448       3.24149122      22.29206776        3       0.00000000      -0.00516661       0.03949788      -0.09147393
Pt       5.61442763       3.24149122      22.29206790        3       0.00000000      -0.00041473       0.00343128      -0.07177464
Pt       8.42164153       3.24149129      22.29206804        3       0.00000000       0.00216310       0.04436291      -0.09633601
Pt       4.21082092       5.67260997      22.29206741        3       0.00000000      -0.02131285      -0.01250050      -0.06337871
Pt       7.01803486       5.67261038      22.29206784        3       0.00000000       0.02010676      -0.00905915      -0.06960788
Pt       9.82524821       5.67261064      22.29206811        3       0.00000000      -0.00379418      -0.04312596      -0.10587960
Pt      -0.00000055       1.62074564      24.58417373        2       0.00000000      -0.04146043      -0.14613479       0.08342158
Pt       2.80721438       1.62074544      24.58417388        2       0.00000000       0.04028609      -0.13090880       0.05963211
Pt       5.61442780       1.62074536      24.58417376        2       0.00000000      -0.00332084       0.00033760      -0.04681559
Pt       1.40360636       4.05186448      24.58417388        2       0.00000000      -0.00107180       0.08973294      -0.20267463
Pt       4.21082089       4.05186396      24.58417385        2       0.00000000      -0.06025746      -0.01883890      -0.09271964
Pt       7.01803505       4.05186407      24.58417401        2       0.00000000       0.06610841      -0.01342406      -0.09336023
Pt       2.80721273       6.48298345      24.58417382        2       0.00000000       0.20066182       0.12549411       0.31918108
Pt       5.61442806       6.48298330      24.58417394        2       0.00000000       0.00042402       0.07405708       0.09511442
Pt       8.42164223       6.48298339      24.58417374        2       0.00000000      -0.19093433       0.13243616       0.30208170
Pt       0.02549243      -0.02362873      27.01330572        1       0.00000000       0.02728695      -0.01505691       0.00533965
Pt       2.79105485      -0.02275432      27.00457274        1       0.00000000      -0.00166145      -0.01630096      -0.01597606
Pt       5.61710393       0.00053993      26.90339587        1       0.00000000       0.00567818      -0.02512433       0.02556401
Pt       1.40375124       2.48318768      26.86522999        1       0.00000000       0.00019837      -0.01846570       0.01488724
Pt       4.21528018       2.41789104      26.91010742        1       0.00000000      -0.03676851       0.00477379       0.00267794
Pt       7.01528916       2.41779964      26.91018776        1       0.00000000       0.04167474       0.00190324       0.00193835
Pt       2.80204880       4.86759276      26.91675617        1       0.00000000       0.03260037      -0.02927148       0.00095331
Pt       5.61587868       4.80397683      26.87906116        1       0.00000000       0.00443946      -0.01189140       0.00482797
Pt       8.43032231       4.86810334      26.91668161        1       0.00000000      -0.03073501      -0.03065513       0.00127514
C        1.39533606      -0.04884715      28.89922494        0       1.00000000      -0.02377367       0.00495247       0.00365512
H        2.28112400       0.52797404      29.23719481        0       0.00000000      -0.01735566      -0.00887997      -0.01372865
H        1.40021435      -1.06238615      29.31569660        0       0.00000000      -0.00967108       0.00159482      -0.02308253
H        0.52002583       0.53154561      29.25367598        0       0.00000000       0.00156706       0.00498172       0.03316965
