40
Lattice="8.421641763931781 0.0 0.0 4.2108208819658905 7.293355709136913 0.0 0.0 0.0 46.87624170604845" Properties=species:S:1:pos:R:3:tags:I:1:initial_magmoms:R:1:forces:R:3 charge=0 spin=0 energy=-206.89628340549194 free_energy=-206.89628340549194 stress="0.010365914553403854 -1.3358657270146068e-05 -6.278603450482478e-06 -1.3358657270146068e-05 0.010379118844866753 -2.6658273782231845e-05 -6.278603450482478e-06 -2.6658273782231845e-05 -0.0003210840804968029" pbc="T T T"
Pt      -0.00000012      -0.00000004      19.95723457        4       0.00000000       0.00037013       0.00041408       0.01341481
Pt       2.80721395      -0.00000016      19.95723462        4       0.00000000      -0.00145227      -0.00507345       0.01707671
Pt       5.61442787      -0.00000009      19.95723469        4       0.00000000       0.00240218      -0.00335645       0.01925981
Pt       1.40360721       2.43111844      19.95723450        4       0.00000000      -0.00396982       0.00038094       0.01950578
Pt       4.21082082       2.43111841      19.95723461        4       0.00000000       0.00048556      -0.00006547       0.02538066
Pt       7.01803480       2.43111847      19.95723446        4       0.00000000       0.00591125       0.00104629       0.01731386
Pt       2.80721415       4.86223736      19.95723430        4       0.00000000      -0.00288877       0.00405164       0.01764437
Pt       5.61442796       4.86223738      19.95723451        4       0.00000000       0.00273631       0.00331413       0.01941780
Pt       8.42164141       4.86223712      19.95723445        4       0.00000000      -0.00006191       0.00094710      -0.03676056
Pt       1.40360727       0.81037260      22.29206796        3       0.00000000       0.00116600      -0.00328652      -0.00538703
Pt       4.21082131       0.81037250      22.29206795        3       0.00000000       0.00595580      -0.01164505      -0.06790943
Pt       7.01803474       0.81037257      22.29206787        3       0.00000000       0.00513115       0.00117382      -0.00237970
Pt       2.80721448       3.24149122      22.29206776        3       0.00000000      -0.01000526       0.00186557      -0.06604403
Pt       5.61442763       3.24149122      22.29206790        3       0.00000000       0.00886000       0.00894002      -0.06576654
Pt       8.42164153       3.24149129      22.29206804        3       0.00000000       0.00001407       0.07666068      -0.14999288
Pt       4.21082092       5.67260997      22.29206741        3       0.00000000      -0.00109659       0.00161770      -0.00462244
Pt       7.01803486       5.67261038      22.29206784        3       0.00000000       0.06705938      -0.03522402      -0.14916089
Pt       9.82524821       5.67261064      22.29206811        3       0.00000000      -0.06305698      -0.03935599      -0.15089691
Pt      -0.00000055       1.62074564      24.58417373        2       0.00000000      -0.00869002      -0.24822873       0.27520829
Pt       2.80721438       1.62074544      24.58417388        2       0.00000000      -0.02123607       0.00025866      -0.01754551
Pt       5.61442780       1.62074536      24.58417376        2       0.00000000       0.01179679      -0.00257668      -0.02000443
Pt       1.40360636       4.05186448      24.58417388        2       0.00000000      -0.02042557      -0.00042912      -0.04794898
Pt       4.21082089       4.05186396      24.58417385        2       0.00000000      -0.00649217       0.01376945      -0.01377265
Pt       7.01803505       4.05186407      24.58417401        2       0.00000000       0.00904274       0.00408100      -0.05492663
Pt       2.80721273       6.48298345      24.58417382        2       0.00000000       0.20481487       0.12171829       0.25693753
Pt       5.61442806       6.48298330      24.58417394        2       0.00000000      -0.21228796       0.12231320       0.24957898
Pt       8.42164223       6.48298339      24.58417374        2       0.00000000      -0.00311110      -0.01609303      -0.05034819
Pt      -0.00677159      -0.00872927      27.14513245        1       0.00000000       0.00363152       0.01659898      -0.00963913
Pt       2.80024435       0.00044696      26.89706268        1       0.00000000      -0.00666198      -0.01820718       0.00231147
Pt       5.60350473       0.00271779      26.89690642        1       0.00000000       0.02806328      -0.02335163       0.00584865
Pt       1.39375755       2.43340148      26.90120544        1       0.00000000      -0.00528119      -0.01371333      -0.00809432
Pt       4.20548527       2.42936692      26.90497298        1       0.00000000      -0.00737231       0.01367889       0.00558050
Pt       7.01569792       2.43409438      26.90125853        1       0.00000000       0.01293175      -0.01723605      -0.00545242
Pt       2.79302683       4.86426192      26.89762822        1       0.00000000       0.01104036      -0.00070226      -0.01170320
Pt       5.61503586       4.85862902      26.89726254        1       0.00000000      -0.01672552       0.01922566      -0.00366526
Pt       8.41278056       4.86324219      26.91399736        1       0.00000000       0.01345007      -0.00259858      -0.00044069
C       -0.00334075      -0.05948829      29.22732554        0       1.00000000      -0.02626311       0.00826464       0.00679858
H        0.94806830       0.36241695      29.58228186        0       0.00000000       0.01114332       0.01049496      -0.00741347
H       -0.10534490      -1.10890692      29.54122511        0       0.00000000       0.00373881       0.00791887       0.01217420
H       -0.85437711       0.53807827      29.58708569        0       0.00000000       0.00733316       0.00240909      -0.01357619
