40
Lattice="8.421641763931781 0.0 0.0 4.2108208819658905 7.293355709136913 0.0 0.0 0.0 46.87624170604845" Properties=species:S:1:pos:R:3:tags:I:1:initial_magmoms:R:1:forces:R:3 charge=0 spin=0 energy=-206.15261008090698 free_energy=-206.15261008090698 stress="0.010550735518336296 1.4746335182280745e-05 3.7521254853345454e-05 1.4746335182280745e-05 0.009660626761615276 0.00012730396701954305 3.7521254853345454e-05 0.00012730396701954305 -0.0002939365804195404" pbc="T T T"
Pt      -0.00000012      -0.00000004      19.95723457        4       0.00000000       0.00039933      -0.00102740       0.01651624
Pt       2.80721395      -0.00000016      19.95723462        4       0.00000000       0.00024162      -0.00261592       0.01566915
Pt       5.61442787      -0.00000009      19.95723469        4       0.00000000       0.00053444      -0.00916655       0.02574694
Pt       1.40360721       2.43111844      19.95723450        4       0.00000000      -0.00096621       0.00112916       0.02273719
Pt       4.21082082       2.43111841      19.95723461        4       0.00000000      -0.00020822      -0.00000897       0.02358643
Pt       7.01803480       2.43111847      19.95723446        4       0.00000000       0.00107127       0.00133903       0.01984520
Pt       2.80721415       4.86223736      19.95723430        4       0.00000000       0.01391637       0.00150991      -0.00008170
Pt       5.61442796       4.86223738      19.95723451        4       0.00000000      -0.00084177       0.00322482       0.01316523
Pt       8.42164141       4.86223712      19.95723445        4       0.00000000      -0.01546937       0.00313540      -0.00330179
Pt       1.40360727       0.81037260      22.29206796        3       0.00000000       0.00233531       0.01566859      -0.03131302
Pt       4.21082131       0.81037250      22.29206795        3       0.00000000      -0.00074241      -0.00938879      -0.03775129
Pt       7.01803474       0.81037257      22.29206787        3       0.00000000       0.00422852      -0.00171699      -0.03173026
Pt       2.80721448       3.24149122      22.29206776        3       0.00000000      -0.00516752       0.03949568      -0.09147123
Pt       5.61442763       3.24149122      22.29206790        3       0.00000000      -0.00041445       0.00343188      -0.07177491
Pt       8.42164153       3.24149129      22.29206804        3       0.00000000       0.00216174       0.04436444      -0.09633829
Pt       4.21082092       5.67260997      22.29206741        3       0.00000000      -0.02131384      -0.01249903      -0.06337493
Pt       7.01803486       5.67261038      22.29206784        3       0.00000000       0.02010670      -0.00905964      -0.06961031
Pt       9.82524821       5.67261064      22.29206811        3       0.00000000      -0.00380210      -0.04312538      -0.10587867
Pt      -0.00000055       1.62074564      24.58417373        2       0.00000000      -0.04146054      -0.14614379       0.08342347
Pt       2.80721438       1.62074544      24.58417388        2       0.00000000       0.04028621      -0.13090059       0.05961726
Pt       5.61442780       1.62074536      24.58417376        2       0.00000000      -0.00332022       0.00034112      -0.04682802
Pt       1.40360636       4.05186448      24.58417388        2       0.00000000      -0.00106863       0.08973640      -0.20267957
Pt       4.21082089       4.05186396      24.58417385        2       0.00000000      -0.06025762      -0.01883699      -0.09271676
Pt       7.01803505       4.05186407      24.58417401        2       0.00000000       0.06611031      -0.01342395      -0.09336638
Pt       2.80721273       6.48298345      24.58417382        2       0.00000000       0.20067613       0.12549537       0.31918520
Pt       5.61442806       6.48298330      24.58417394        2       0.00000000       0.00041610       0.07405356       0.09511060
Pt       8.42164223       6.48298339      24.58417374        2       0.00000000      -0.19092526       0.13242851       0.30205861
Pt       0.02550155      -0.02363014      27.01331198        1       0.00000000       0.02731007      -0.01505722       0.00536610
Pt       2.79106247      -0.02275481      27.00456310        1       0.00000000      -0.00163393      -0.01629619      -0.01599199
Pt       5.61710812       0.00054022      26.90339346        1       0.00000000       0.00568428      -0.02512959       0.02558292
Pt       1.40375164       2.48318846      26.86522859        1       0.00000000       0.00020207      -0.01846971       0.01489957
Pt       4.21528193       2.41788999      26.91010689        1       0.00000000      -0.03676884       0.00478380       0.00267663
Pt       7.01529099       2.41779776      26.91018706        1       0.00000000       0.04168046       0.00190835       0.00195019
Pt       2.80205006       4.86759414      26.91675615        1       0.00000000       0.03261048      -0.02927930       0.00095091
Pt       5.61588082       4.80397479      26.87906098        1       0.00000000       0.00443750      -0.01188303       0.00482678
Pt       8.43032352       4.86810332      26.91668216        1       0.00000000      -0.03072624      -0.03066206       0.00127797
C        1.39532152      -0.04884638      28.89922269        0       1.00000000      -0.02383614       0.00494602       0.00367471
H        0.52002008       0.53154752      29.25369009        0       0.00000000       0.00156655       0.00498300       0.03319563
H        2.28111803       0.52797157      29.23717958        0       0.00000000      -0.01736633      -0.00888654      -0.01376799
H        1.40020853      -1.06238629      29.31569406        0       0.00000000      -0.00968548       0.00160273      -0.02308590
