40
Lattice="8.421641763931781 0.0 0.0 4.2108208819658905 7.293355709136913 0.0 0.0 0.0 46.87624170604845" Properties=species:S:1:pos:R:3:tags:I:1:initial_magmoms:R:1:forces:R:3 charge=0 spin=0 energy=-206.89052702731811 free_energy=-206.89052702731811 stress="0.010432432405650616 2.024293507929542e-06 1.2335872270341497e-05 2.024293507929542e-06 0.010310152545571327 7.457634637830779e-05 1.2335872270341497e-05 7.457634637830779e-05 -0.0003413929953239858" pbc="T T T"
Pt      -0.00000012      -0.00000004      19.95723457        4       0.00000000      -0.00024783      -0.00266285       0.01297609
Pt       2.80721395      -0.00000016      19.95723462        4       0.00000000      -0.00177602      -0.00797897       0.01647281
Pt       5.61442787      -0.00000009      19.95723469        4       0.00000000       0.00176087      -0.00585986       0.01876038
Pt       1.40360721       2.43111844      19.95723450        4       0.00000000      -0.00400589      -0.00312651       0.01924617
Pt       4.21082082       2.43111841      19.95723461        4       0.00000000      -0.00022480      -0.00290594       0.02527219
Pt       7.01803480       2.43111847      19.95723446        4       0.00000000       0.00537394      -0.00263753       0.01731172
Pt       2.80721415       4.86223736      19.95723430        4       0.00000000      -0.00333243       0.00144937       0.01755871
Pt       5.61442796       4.86223738      19.95723451        4       0.00000000       0.00151798       0.00098614       0.01942107
Pt       8.42164141       4.86223712      19.95723445        4       0.00000000       0.00010294       0.00126848      -0.03697221
Pt       1.40360727       0.81037260      22.29206796        3       0.00000000      -0.00252014      -0.01457718      -0.00014937
Pt       4.21082131       0.81037250      22.29206795        3       0.00000000       0.00237591      -0.02152239      -0.06601859
Pt       7.01803474       0.81037257      22.29206787        3       0.00000000       0.00213397      -0.00760775       0.00000166
Pt       2.80721448       3.24149122      22.29206776        3       0.00000000      -0.01442683      -0.00897103      -0.06555159
Pt       5.61442763       3.24149122      22.29206790        3       0.00000000       0.00695809      -0.00104866      -0.06782784
Pt       8.42164153       3.24149129      22.29206804        3       0.00000000      -0.00320618       0.07238920      -0.15791503
Pt       4.21082092       5.67260997      22.29206741        3       0.00000000      -0.00458610      -0.01045224      -0.00842567
Pt       7.01803486       5.67261038      22.29206784        3       0.00000000       0.06250321      -0.04542653      -0.14882560
Pt       9.82524821       5.67261064      22.29206811        3       0.00000000      -0.06417916      -0.04832806      -0.14751878
Pt      -0.00000055       1.62074564      24.58417373        2       0.00000000       0.00008528      -0.22279681       0.27583748
Pt       2.80721438       1.62074544      24.58417388        2       0.00000000      -0.00324028       0.03522965      -0.01471222
Pt       5.61442780       1.62074536      24.58417376        2       0.00000000       0.01455688       0.02690082      -0.00428280
Pt       1.40360636       4.05186448      24.58417388        2       0.00000000      -0.00478453       0.03773376      -0.05323025
Pt       4.21082089       4.05186396      24.58417385        2       0.00000000       0.00387267       0.04701488      -0.01186520
Pt       7.01803505       4.05186407      24.58417401        2       0.00000000       0.01005376       0.04191510      -0.05343271
Pt       2.80721273       6.48298345      24.58417382        2       0.00000000       0.21316676       0.15613061       0.24216329
Pt       5.61442806       6.48298330      24.58417394        2       0.00000000      -0.20255277       0.16299516       0.23977482
Pt       8.42164223       6.48298339      24.58417374        2       0.00000000       0.01024616       0.03231224      -0.05038837
Pt       0.00535835       0.04997853      27.14681415        1       0.00000000       0.00981895      -0.03938987      -0.00999686
Pt       2.81198309       0.04110591      26.89832890        1       0.00000000       0.02484180      -0.01738494       0.00065543
Pt       5.62590289       0.03708405      26.90097975        1       0.00000000      -0.03040091       0.00599253       0.00021452
Pt       1.40433953       2.47394592      26.89745962        1       0.00000000       0.01809979      -0.01416096       0.00898691
Pt       4.22042621       2.47591034      26.90741994        1       0.00000000      -0.01316940      -0.02554641      -0.00866020
Pt       7.03066594       2.47799546      26.90054404        1       0.00000000      -0.02360077      -0.02204815      -0.01069656
Pt       2.80731483       4.90781326      26.90150033        1       0.00000000       0.01305018      -0.03213443      -0.02188312
Pt       5.62282538       4.90998502      26.89762845        1       0.00000000      -0.01227929      -0.02609005      -0.00014813
Pt       8.42743770       4.91058189      26.91002103        1       0.00000000      -0.00222152      -0.03580149       0.01569179
C        0.01423365       0.01948537      29.22895364        0       1.00000000      -0.02826383      -0.00898889       0.00687848
H       -0.49978454      -0.89962045      29.54629889        0       0.00000000      -0.01344657       0.01489398       0.03709966
H       -0.51096864       0.91306543      29.59822602        0       0.00000000      -0.01648663      -0.01079889      -0.03375843
H        1.05815707       0.01675444      29.57145564        0       0.00000000       0.04843296       0.00103439      -0.00206320
