40
Lattice="8.421641763931781 0.0 0.0 4.2108208819658905 7.293355709136913 0.0 0.0 0.0 46.87624170604845" Properties=species:S:1:pos:R:3:tags:I:1:initial_magmoms:R:1:forces:R:3 charge=0 spin=0 energy=-206.15309836215698 free_energy=-206.15309836215698 stress="0.010531642474234104 1.009377865557326e-05 -3.1829721081066964e-08 1.009377865557326e-05 0.009699760936200619 0.00012293527834117413 -3.1829721081066964e-08 0.00012293527834117413 -0.0002528342301957309" pbc="T T T"
Pt      -0.00000012      -0.00000004      19.95723457        4       0.00000000       0.00093429      -0.00063920       0.01642731
Pt       2.80721395      -0.00000016      19.95723462        4       0.00000000      -0.00002844      -0.00214337       0.01559610
Pt       5.61442787      -0.00000009      19.95723469        4       0.00000000       0.00046129      -0.00835315       0.02645421
Pt       1.40360721       2.43111844      19.95723450        4       0.00000000      -0.00073928       0.00151300       0.02274084
Pt       4.21082082       2.43111841      19.95723461        4       0.00000000      -0.00005849       0.00093350       0.02325225
Pt       7.01803480       2.43111847      19.95723446        4       0.00000000       0.00086064       0.00229598       0.02003054
Pt       2.80721415       4.86223736      19.95723430        4       0.00000000       0.01495017       0.00178265      -0.00114851
Pt       5.61442796       4.86223738      19.95723451        4       0.00000000      -0.00088283       0.00410279       0.01336370
Pt       8.42164141       4.86223712      19.95723445        4       0.00000000      -0.01495245       0.00359486      -0.00277071
Pt       1.40360727       0.81037260      22.29206796        3       0.00000000       0.00296747       0.01782468      -0.02974886
Pt       4.21082131       0.81037250      22.29206795        3       0.00000000       0.00006137      -0.00705280      -0.03631569
Pt       7.01803474       0.81037257      22.29206787        3       0.00000000       0.00447150       0.00034378      -0.03377422
Pt       2.80721448       3.24149122      22.29206776        3       0.00000000      -0.00437044       0.04322992      -0.09398501
Pt       5.61442763       3.24149122      22.29206790        3       0.00000000      -0.00041213       0.00595218      -0.07056304
Pt       8.42164153       3.24149129      22.29206804        3       0.00000000       0.00318972       0.04561596      -0.09487719
Pt       4.21082092       5.67260997      22.29206741        3       0.00000000      -0.02136044      -0.01079902      -0.06552035
Pt       7.01803486       5.67261038      22.29206784        3       0.00000000       0.02084289      -0.00657651      -0.06686392
Pt       9.82524821       5.67261064      22.29206811        3       0.00000000       0.00127912      -0.04046598      -0.10852969
Pt      -0.00000055       1.62074564      24.58417373        2       0.00000000      -0.03937716      -0.14644666       0.07407705
Pt       2.80721438       1.62074544      24.58417388        2       0.00000000       0.03947310      -0.14255977       0.06552581
Pt       5.61442780       1.62074536      24.58417376        2       0.00000000      -0.00596995      -0.02038520      -0.01312552
Pt       1.40360636       4.05186448      24.58417388        2       0.00000000      -0.00269343       0.07249347      -0.19160384
Pt       4.21082089       4.05186396      24.58417385        2       0.00000000      -0.05338922      -0.02848095      -0.10509524
Pt       7.01803505       4.05186407      24.58417401        2       0.00000000       0.05675372      -0.01976112      -0.10649471
Pt       2.80721273       6.48298345      24.58417382        2       0.00000000       0.18488480       0.12331393       0.33431107
Pt       5.61442806       6.48298330      24.58417394        2       0.00000000       0.00569405       0.06895503       0.09024277
Pt       8.42164223       6.48298339      24.58417374        2       0.00000000      -0.19178395       0.13710229       0.33678022
Pt       0.02275793      -0.03218084      27.00844975        1       0.00000000      -0.04172344      -0.00853176      -0.00720291
Pt       2.78128853      -0.03281456      27.01142663        1       0.00000000       0.03763287      -0.00548023      -0.00931945
Pt       5.61400023      -0.01192518      26.91333535        1       0.00000000      -0.00060866      -0.00050878      -0.03819903
Pt       1.40283552       2.47131537      26.87009429        1       0.00000000      -0.00124072       0.00737513      -0.01361516
Pt       4.21003993       2.41175789      26.90948814        1       0.00000000      -0.00196324      -0.02837064       0.00470090
Pt       7.01716251       2.41313186      26.90902896        1       0.00000000       0.00123480      -0.03274675       0.00536633
Pt       2.80454674       4.85353918      26.91438030        1       0.00000000      -0.00335255       0.00842948       0.01323586
Pt       5.61418297       4.79899837      26.87992162        1       0.00000000      -0.00048152      -0.03532624       0.00792325
Pt       8.42474341       4.85497487      26.91398272        1       0.00000000       0.00063297       0.00830494       0.01333802
C        1.40430745      -0.04901671      28.90206605        0       1.00000000       0.00369994      -0.03279378      -0.01457549
H        1.40304219      -1.06126303      29.32067175        0       0.00000000       0.00079992      -0.01219308      -0.01941920
H        0.52518651       0.53038434      29.24611027        0       0.00000000      -0.02441778       0.01876002       0.01507006
H        2.28362054       0.52871621      29.24790933        0       0.00000000       0.02898160       0.01769134       0.02431130
