40
Lattice="8.421641763931781 0.0 0.0 4.2108208819658905 7.293355709136913 0.0 0.0 0.0 46.87624170604845" Properties=species:S:1:pos:R:3:tags:I:1:initial_magmoms:R:1:forces:R:3 charge=0 spin=0 energy=-206.1544239694568 free_energy=-206.1544239694568 stress="0.01045164279639721 1.0565142474661116e-05 -1.4516195733449422e-05 1.0565142474661116e-05 0.009673094376921654 7.586141873616725e-05 -1.4516195733449422e-05 7.586141873616725e-05 -0.000319067359669134" pbc="T T T"
Pt      -0.00000012      -0.00000004      19.95723457        4       0.00000000       0.00168527       0.00169668       0.01681880
Pt       2.80721395      -0.00000016      19.95723462        4       0.00000000      -0.00037299       0.00071731       0.01624497
Pt       5.61442787      -0.00000009      19.95723469        4       0.00000000       0.00051800      -0.00712945       0.02622050
Pt       1.40360721       2.43111844      19.95723450        4       0.00000000      -0.00100112       0.00318671       0.02291571
Pt       4.21082082       2.43111841      19.95723461        4       0.00000000      -0.00013156       0.00352424       0.02219593
Pt       7.01803480       2.43111847      19.95723446        4       0.00000000       0.00129331       0.00447594       0.01942594
Pt       2.80721415       4.86223736      19.95723430        4       0.00000000       0.01560850      -0.00059426      -0.00201070
Pt       5.61442796       4.86223738      19.95723451        4       0.00000000      -0.00110249       0.00512192       0.01304059
Pt       8.42164141       4.86223712      19.95723445        4       0.00000000      -0.01581115       0.00166288      -0.00188322
Pt       1.40360727       0.81037260      22.29206796        3       0.00000000       0.00283579       0.02051283      -0.03324333
Pt       4.21082131       0.81037250      22.29206795        3       0.00000000       0.00196419      -0.00280719      -0.03991036
Pt       7.01803474       0.81037257      22.29206787        3       0.00000000       0.00213481       0.00513991      -0.03814196
Pt       2.80721448       3.24149122      22.29206776        3       0.00000000      -0.00220777       0.04161187      -0.08968639
Pt       5.61442763       3.24149122      22.29206790        3       0.00000000      -0.00086494       0.01226665      -0.06847918
Pt       8.42164153       3.24149129      22.29206804        3       0.00000000       0.00233772       0.04294913      -0.08915077
Pt       4.21082092       5.67260997      22.29206741        3       0.00000000      -0.02307489      -0.00440432      -0.06645709
Pt       7.01803486       5.67261038      22.29206784        3       0.00000000       0.02208068      -0.00106293      -0.06683908
Pt       9.82524821       5.67261064      22.29206811        3       0.00000000       0.00296763      -0.04096026      -0.10674865
Pt      -0.00000055       1.62074564      24.58417373        2       0.00000000      -0.04761574      -0.14938642       0.05014344
Pt       2.80721438       1.62074544      24.58417388        2       0.00000000       0.04662941      -0.15160912       0.04668772
Pt       5.61442780       1.62074536      24.58417376        2       0.00000000      -0.00572550      -0.02341827      -0.02787568
Pt       1.40360636       4.05186448      24.58417388        2       0.00000000      -0.00296100       0.05209483      -0.18329278
Pt       4.21082089       4.05186396      24.58417385        2       0.00000000      -0.04367541      -0.04879762      -0.09780538
Pt       7.01803505       4.05186407      24.58417401        2       0.00000000       0.04912615      -0.04351761      -0.09894162
Pt       2.80721273       6.48298345      24.58417382        2       0.00000000       0.19553873       0.09871877       0.30340597
Pt       5.61442806       6.48298330      24.58417394        2       0.00000000       0.00610647       0.03655098       0.08080444
Pt       8.42164223       6.48298339      24.58417374        2       0.00000000      -0.20738415       0.11743779       0.31554720
Pt       0.01455355      -0.04768133      26.99717748        1       0.00000000       0.01840812      -0.00807703       0.02109945
Pt       2.78873679      -0.04737167      27.00188577        1       0.00000000      -0.03293404      -0.00555830       0.03284479
Pt       5.61424304      -0.03769950      26.90342519        1       0.00000000      -0.00494939       0.03158417       0.01231050
Pt       1.40225315       2.45551150      26.86779219        1       0.00000000      -0.00136831       0.02329434      -0.00451677
Pt       4.21327343       2.38814520      26.91311129        1       0.00000000      -0.01727450       0.01792855      -0.00103899
Pt       7.01357436       2.38817786      26.91282113        1       0.00000000       0.01231091       0.01704313      -0.00242824
Pt       2.80801560       4.83193404      26.91347474        1       0.00000000      -0.01317651       0.00497704       0.01758861
Pt       5.61376996       4.77922543      26.88506594        1       0.00000000      -0.00004126      -0.03285296      -0.00431121
Pt       8.41949006       4.83340634      26.91274326        1       0.00000000       0.01154790       0.00471726       0.01693203
C        1.40865366       0.09001054      28.88429663        0       1.00000000       0.01260381      -0.01651387      -0.01137005
H        2.28596428      -0.47361705      29.26003530        0       0.00000000       0.01478104      -0.01794670       0.01459040
H        0.52507422      -0.47132993      29.25065679        0       0.00000000      -0.00562743      -0.01435643      -0.01185495
H        1.40578157       1.11743726      29.26369035        0       0.00000000       0.00682162       0.02177971      -0.00283065
