40
Lattice="8.421641763931781 0.0 0.0 4.2108208819658905 7.293355709136913 0.0 0.0 0.0 46.87624170604845" Properties=species:S:1:pos:R:3:tags:I:1:initial_magmoms:R:1:forces:R:3 charge=0 spin=0 energy=-206.89624716586792 free_energy=-206.89624716586792 stress="0.010365836322307587 -1.352221988781821e-05 -6.322736226138659e-06 -1.352221988781821e-05 0.01037966925650835 -2.705092447286006e-05 -6.322736226138659e-06 -2.705092447286006e-05 -0.0003207713889423758" pbc="T T T"
Pt      -0.00000012      -0.00000004      19.95723457        4       0.00000000       0.00036907       0.00043098       0.01341322
Pt       2.80721395      -0.00000016      19.95723462        4       0.00000000      -0.00145061      -0.00506475       0.01707474
Pt       5.61442787      -0.00000009      19.95723469        4       0.00000000       0.00240069      -0.00334256       0.01925421
Pt       1.40360721       2.43111844      19.95723450        4       0.00000000      -0.00397680       0.00038749       0.01950436
Pt       4.21082082       2.43111841      19.95723461        4       0.00000000       0.00048367      -0.00006050       0.02537951
Pt       7.01803480       2.43111847      19.95723446        4       0.00000000       0.00591467       0.00106060       0.01732044
Pt       2.80721415       4.86223736      19.95723430        4       0.00000000      -0.00288042       0.00405251       0.01764970
Pt       5.61442796       4.86223738      19.95723451        4       0.00000000       0.00274380       0.00332217       0.01941555
Pt       8.42164141       4.86223712      19.95723445        4       0.00000000      -0.00006323       0.00096107      -0.03675825
Pt       1.40360727       0.81037260      22.29206796        3       0.00000000       0.00116867      -0.00325894      -0.00540276
Pt       4.21082131       0.81037250      22.29206795        3       0.00000000       0.00596636      -0.01162649      -0.06791389
Pt       7.01803474       0.81037257      22.29206787        3       0.00000000       0.00513184       0.00119755      -0.00237097
Pt       2.80721448       3.24149122      22.29206776        3       0.00000000      -0.00999176       0.00189558      -0.06604698
Pt       5.61442763       3.24149122      22.29206790        3       0.00000000       0.00884956       0.00897383      -0.06575167
Pt       8.42164153       3.24149129      22.29206804        3       0.00000000       0.00002975       0.07670353      -0.14994526
Pt       4.21082092       5.67260997      22.29206741        3       0.00000000      -0.00108896       0.00164492      -0.00466371
Pt       7.01803486       5.67261038      22.29206784        3       0.00000000       0.06706505      -0.03518038      -0.14914450
Pt       9.82524821       5.67261064      22.29206811        3       0.00000000      -0.06303620      -0.03932634      -0.15093829
Pt      -0.00000055       1.62074564      24.58417373        2       0.00000000      -0.00878063      -0.24827188       0.27532077
Pt       2.80721438       1.62074544      24.58417388        2       0.00000000      -0.02122135       0.00024031      -0.01762188
Pt       5.61442780       1.62074536      24.58417376        2       0.00000000       0.01192659      -0.00255434      -0.02007695
Pt       1.40360636       4.05186448      24.58417388        2       0.00000000      -0.02053479      -0.00058653      -0.04787766
Pt       4.21082089       4.05186396      24.58417385        2       0.00000000      -0.00649346       0.01363812      -0.01350985
Pt       7.01803505       4.05186407      24.58417401        2       0.00000000       0.00913060       0.00384520      -0.05484173
Pt       2.80721273       6.48298345      24.58417382        2       0.00000000       0.20474096       0.12156064       0.25696141
Pt       5.61442806       6.48298330      24.58417394        2       0.00000000      -0.21224850       0.12223036       0.24953918
Pt       8.42164223       6.48298339      24.58417374        2       0.00000000      -0.00334577      -0.01622977      -0.05027266
Pt      -0.00685550      -0.00888829      27.14507976        1       0.00000000       0.00355824       0.01637512      -0.00953614
Pt       2.80010256       0.00050273      26.89714559        1       0.00000000      -0.00632206      -0.01889847       0.00212468
Pt       5.60335240       0.00261786      26.89684775        1       0.00000000       0.02859794      -0.02359049       0.00608976
Pt       1.39375300       2.43321551      26.90121413        1       0.00000000      -0.00543583      -0.01324588      -0.00804913
Pt       4.20556994       2.42911408      26.90500528        1       0.00000000      -0.00770031       0.01451940       0.00551124
Pt       7.01570493       2.43393776      26.90135940        1       0.00000000       0.01291969      -0.01702402      -0.00570762
Pt       2.79294402       4.86406474      26.89762364        1       0.00000000       0.01133428      -0.00050717      -0.01187410
Pt       5.61515036       4.85854141      26.89723233        1       0.00000000      -0.01728590       0.01903236      -0.00373729
Pt       8.41273891       4.86316414      26.91403935        1       0.00000000       0.01351455      -0.00274902      -0.00059557
C       -0.00341979      -0.06028211      29.22725339        0       1.00000000      -0.02565415       0.00843269       0.00739474
H       -0.10393667      -1.10994587      29.54084503        0       0.00000000       0.00333902       0.00826686       0.01217200
H       -0.85523125       0.53605177      29.58725103        0       0.00000000       0.00741847       0.00212071      -0.01384303
H        0.94744180       0.36275814      29.58236393        0       0.00000000       0.01090736       0.01062537      -0.00764563
