40
Lattice="8.421641763931781 0.0 0.0 4.2108208819658905 7.293355709136913 0.0 0.0 0.0 46.87624170604845" Properties=species:S:1:pos:R:3:tags:I:1:initial_magmoms:R:1:forces:R:3 charge=0 spin=0 energy=-206.8942749673816 free_energy=-206.8942749673816 stress="0.010372108779847622 2.1239133275230415e-05 1.7049285816028714e-05 2.1239133275230415e-05 0.010296112857758999 3.765785368159413e-05 1.7049285816028714e-05 3.765785368159413e-05 -0.0003944386262446642" pbc="T T T"
Pt      -0.00000012      -0.00000004      19.95723457        4       0.00000000      -0.00065751      -0.00098646       0.01320198
Pt       2.80721395      -0.00000016      19.95723462        4       0.00000000      -0.00327514      -0.00548834       0.01708958
Pt       5.61442787      -0.00000009      19.95723469        4       0.00000000       0.00113499      -0.00433233       0.01925033
Pt       1.40360721       2.43111844      19.95723450        4       0.00000000      -0.00458256      -0.00063613       0.01901138
Pt       4.21082082       2.43111841      19.95723461        4       0.00000000      -0.00080585      -0.00047108       0.02529204
Pt       7.01803480       2.43111847      19.95723446        4       0.00000000       0.00441630      -0.00006234       0.01744179
Pt       2.80721415       4.86223736      19.95723430        4       0.00000000      -0.00417127       0.00315713       0.01726800
Pt       5.61442796       4.86223738      19.95723451        4       0.00000000       0.00145110       0.00246983       0.01916844
Pt       8.42164141       4.86223712      19.95723445        4       0.00000000      -0.00001681      -0.00005280      -0.03717414
Pt       1.40360727       0.81037260      22.29206796        3       0.00000000      -0.00426202      -0.00671482      -0.00178891
Pt       4.21082131       0.81037250      22.29206795        3       0.00000000       0.00067740      -0.01433579      -0.06841930
Pt       7.01803474       0.81037257      22.29206787        3       0.00000000      -0.00023290      -0.00096028      -0.00623732
Pt       2.80721448       3.24149122      22.29206776        3       0.00000000      -0.01540467      -0.00107780      -0.06379622
Pt       5.61442763       3.24149122      22.29206790        3       0.00000000       0.00612777       0.00669571      -0.06367618
Pt       8.42164153       3.24149129      22.29206804        3       0.00000000      -0.00441079       0.07497365      -0.15236624
Pt       4.21082092       5.67260997      22.29206741        3       0.00000000      -0.00611881      -0.00010383      -0.00355979
Pt       7.01803486       5.67261038      22.29206784        3       0.00000000       0.06390119      -0.03798476      -0.15065619
Pt       9.82524821       5.67261064      22.29206811        3       0.00000000      -0.06675551      -0.04054555      -0.14880359
Pt      -0.00000055       1.62074564      24.58417373        2       0.00000000       0.01060774      -0.23611063       0.25247568
Pt       2.80721438       1.62074544      24.58417388        2       0.00000000       0.00202664       0.00884220      -0.02361225
Pt       5.61442780       1.62074536      24.58417376        2       0.00000000       0.02094751       0.01518373      -0.01951881
Pt       1.40360636       4.05186448      24.58417388        2       0.00000000       0.00276740       0.01171228      -0.06538800
Pt       4.21082089       4.05186396      24.58417385        2       0.00000000       0.00840785       0.02086726      -0.02709058
Pt       7.01803505       4.05186407      24.58417401        2       0.00000000       0.01050948       0.01055778      -0.05955783
Pt       2.80721273       6.48298345      24.58417382        2       0.00000000       0.22622177       0.12344678       0.24569780
Pt       5.61442806       6.48298330      24.58417394        2       0.00000000      -0.20540075       0.13144359       0.25629267
Pt       8.42164223       6.48298339      24.58417374        2       0.00000000       0.00965877      -0.00733282      -0.07424894
Pt       0.01146113       0.01778585      27.14300706        1       0.00000000       0.00048789      -0.01720069       0.00134111
Pt       2.82080689       0.00751743      26.89338703        1       0.00000000      -0.01191051      -0.00988228       0.00800116
Pt       5.62240190       0.00941162      26.88848830        1       0.00000000       0.01980507      -0.00881252       0.04000501
Pt       1.41884451       2.44621325      26.89762501        1       0.00000000      -0.01468149      -0.02342737       0.01118884
Pt       4.22574550       2.44797531      26.90746833        1       0.00000000      -0.00547929      -0.02836001      -0.00154179
Pt       7.04301714       2.44238875      26.90146103        1       0.00000000      -0.04441436      -0.00017080      -0.01667609
Pt       2.81507396       4.87375849      26.89994222        1       0.00000000      -0.00130401       0.01360347      -0.00882833
Pt       5.62480342       4.87044856      26.89659012        1       0.00000000       0.00552886       0.02520479       0.00525382
Pt       8.43129681       4.86816695      26.90534121        1       0.00000000       0.00138006       0.02126854       0.02890509
C        0.02408034       0.01950253      29.22662548        0       1.00000000       0.03576492      -0.01787880      -0.00009608
H       -0.49051947      -0.89268263      29.56129013        0       0.00000000       0.01002300      -0.01709276       0.02690735
H       -0.50244174       0.91506850      29.58767635        0       0.00000000      -0.00051285       0.01790200      -0.03538888
H        1.07446338       0.02423595      29.55749870        0       0.00000000      -0.04744851      -0.00730806       0.00463313
