40
Lattice="8.421641763931781 0.0 0.0 4.2108208819658905 7.293355709136913 0.0 0.0 0.0 46.87624170604845" Properties=species:S:1:pos:R:3:tags:I:1:initial_magmoms:R:1:forces:R:3 charge=0 spin=0 energy=-206.89487578220093 free_energy=-206.89487578220093 stress="0.010369907133281231 -2.378078676201767e-07 5.1202250688220374e-06 -2.378078676201767e-07 0.010313478298485279 -3.071958417422138e-06 5.1202250688220374e-06 -3.071958417422138e-06 -0.00033776520285755396" pbc="T T T"
Pt      -0.00000012      -0.00000004      19.95723457        4       0.00000000      -0.00013511      -0.00069166       0.01318181
Pt       2.80721395      -0.00000016      19.95723462        4       0.00000000      -0.00136521      -0.00603238       0.01718689
Pt       5.61442787      -0.00000009      19.95723469        4       0.00000000       0.00198468      -0.00451298       0.01937435
Pt       1.40360721       2.43111844      19.95723450        4       0.00000000      -0.00389560      -0.00080306       0.01943979
Pt       4.21082082       2.43111841      19.95723461        4       0.00000000      -0.00015442      -0.00096340       0.02532491
Pt       7.01803480       2.43111847      19.95723446        4       0.00000000       0.00542088      -0.00030194       0.01712035
Pt       2.80721415       4.86223736      19.95723430        4       0.00000000      -0.00293970       0.00308508       0.01748312
Pt       5.61442796       4.86223738      19.95723451        4       0.00000000       0.00223049       0.00230201       0.01939562
Pt       8.42164141       4.86223712      19.95723445        4       0.00000000      -0.00006544      -0.00036039      -0.03692848
Pt       1.40360727       0.81037260      22.29206796        3       0.00000000      -0.00115641      -0.00691202      -0.00500160
Pt       4.21082131       0.81037250      22.29206795        3       0.00000000       0.00389199      -0.01470680      -0.06536211
Pt       7.01803474       0.81037257      22.29206787        3       0.00000000       0.00412294      -0.00178429      -0.00274855
Pt       2.80721448       3.24149122      22.29206776        3       0.00000000      -0.01230344      -0.00125905      -0.06652877
Pt       5.61442763       3.24149122      22.29206790        3       0.00000000       0.00756985       0.00533539      -0.06730935
Pt       8.42164153       3.24149129      22.29206804        3       0.00000000      -0.00179310       0.07225591      -0.15073489
Pt       4.21082092       5.67260997      22.29206741        3       0.00000000      -0.00297964      -0.00191599      -0.00529543
Pt       7.01803486       5.67261038      22.29206784        3       0.00000000       0.06623776      -0.03978775      -0.14828834
Pt       9.82524821       5.67261064      22.29206811        3       0.00000000      -0.06403601      -0.04258778      -0.14956464
Pt      -0.00000055       1.62074564      24.58417373        2       0.00000000      -0.00082883      -0.23462705       0.26694295
Pt       2.80721438       1.62074544      24.58417388        2       0.00000000      -0.00806797       0.00948177      -0.00828820
Pt       5.61442780       1.62074536      24.58417376        2       0.00000000       0.00638054       0.00661515      -0.02910611
Pt       1.40360636       4.05186448      24.58417388        2       0.00000000      -0.01315504       0.01289940      -0.05235552
Pt       4.21082089       4.05186396      24.58417385        2       0.00000000       0.00012671       0.02143434      -0.00846728
Pt       7.01803505       4.05186407      24.58417401        2       0.00000000       0.01286631       0.02601566      -0.04871278
Pt       2.80721273       6.48298345      24.58417382        2       0.00000000       0.20703420       0.13230640       0.24502794
Pt       5.61442806       6.48298330      24.58417394        2       0.00000000      -0.20175390       0.12974218       0.24782179
Pt       8.42164223       6.48298339      24.58417374        2       0.00000000      -0.00181122      -0.00266554      -0.04956247
Pt       0.00267077       0.00103784      27.13830756        1       0.00000000      -0.00919360       0.03977746       0.01692768
Pt       2.80469580       0.01097422      26.90008477        1       0.00000000       0.01448655      -0.00616851      -0.01333616
Pt       5.61047536       0.01681260      26.89611040        1       0.00000000       0.01921903      -0.02192052       0.01533571
Pt       1.40254943       2.44766258      26.89840074        1       0.00000000      -0.01025381      -0.02058854      -0.00602380
Pt       4.21529533       2.44648855      26.90898015        1       0.00000000      -0.02756081      -0.00481780      -0.00810979
Pt       7.01819366       2.44783563      26.89628052        1       0.00000000       0.02958738      -0.01260757      -0.00176550
Pt       2.79966512       4.88215234      26.89780001        1       0.00000000       0.01269527      -0.03153123      -0.00550660
Pt       5.61963351       4.87506931      26.89990110        1       0.00000000      -0.00506369       0.00215658      -0.00436498
Pt       8.42646108       4.87947013      26.91493879        1       0.00000000      -0.02055573      -0.02131793      -0.00462297
C        0.00757244       0.00588010      29.22264618        0       1.00000000      -0.02409923       0.02195363      -0.02968800
H       -0.51784649       0.91231549      29.55378082        0       0.00000000      -0.00765799       0.03622861       0.02779939
H        1.05254198       0.01350816      29.56224404        0       0.00000000       0.02883749      -0.00463530       0.01451650
H       -0.51401286      -0.89378177      29.57823490        0       0.00000000      -0.00186627      -0.03809001      -0.01520657
