40
Lattice="8.421641763931781 0.0 0.0 4.2108208819658905 7.293355709136913 0.0 0.0 0.0 46.87624170604845" Properties=species:S:1:pos:R:3:tags:I:1:initial_magmoms:R:1:forces:R:3 charge=0 spin=0 energy=-206.89762808627808 free_energy=-206.89762808627808 stress="0.010385529138147831 -3.5609648421086604e-06 1.9689719010784756e-06 -3.5609648421086604e-06 0.010358944535255432 1.2075302947778255e-05 1.9689719010784756e-06 1.2075302947778255e-05 -0.0003245329426135868" pbc="T T T"
Pt      -0.00000012      -0.00000004      19.95723457        4       0.00000000       0.00198658      -0.00379139       0.01915858
Pt       2.80721395      -0.00000016      19.95723462        4       0.00000000      -0.00004823      -0.00027818       0.01332386
Pt       5.61442787      -0.00000009      19.95723469        4       0.00000000      -0.00171235      -0.00529387       0.01720574
Pt       1.40360721       2.43111844      19.95723450        4       0.00000000       0.00521129       0.00023565       0.01718208
Pt       4.21082082       2.43111841      19.95723461        4       0.00000000      -0.00382664      -0.00054578       0.01916354
Pt       7.01803480       2.43111847      19.95723446        4       0.00000000      -0.00002053      -0.00026859       0.02533235
Pt       2.80721415       4.86223736      19.95723430        4       0.00000000       0.00029347      -0.00022082      -0.03662115
Pt       5.61442796       4.86223738      19.95723451        4       0.00000000      -0.00315226       0.00373236       0.01723053
Pt       8.42164141       4.86223712      19.95723445        4       0.00000000       0.00175900       0.00304146       0.01927660
Pt       1.40360727       0.81037260      22.29206796        3       0.00000000       0.00293646       0.00066690      -0.00247957
Pt       4.21082131       0.81037250      22.29206795        3       0.00000000      -0.00043924      -0.00469656      -0.00228288
Pt       7.01803474       0.81037257      22.29206787        3       0.00000000       0.00443404      -0.01259648      -0.06682692
Pt       2.80721448       3.24149122      22.29206776        3       0.00000000      -0.00195226       0.07481699      -0.15147468
Pt       5.61442763       3.24149122      22.29206790        3       0.00000000      -0.01246014       0.00026931      -0.06740256
Pt       8.42164153       3.24149129      22.29206804        3       0.00000000       0.00747986       0.00830110      -0.06739748
Pt       4.21082092       5.67260997      22.29206741        3       0.00000000      -0.06439669      -0.04072468      -0.14943478
Pt       7.01803486       5.67261038      22.29206784        3       0.00000000      -0.00298627       0.00054141      -0.00256765
Pt       9.82524821       5.67261064      22.29206811        3       0.00000000       0.06675482      -0.03811378      -0.15027592
Pt      -0.00000055       1.62074564      24.58417373        2       0.00000000       0.00700260      -0.00030471      -0.02721906
Pt       2.80721438       1.62074544      24.58417388        2       0.00000000      -0.00367092      -0.24311909       0.25356716
Pt       5.61442780       1.62074536      24.58417376        2       0.00000000      -0.00663396       0.00031399      -0.02341729
Pt       1.40360636       4.05186448      24.58417388        2       0.00000000       0.00848946       0.01557663      -0.04811933
Pt       4.21082089       4.05186396      24.58417385        2       0.00000000      -0.00940820       0.01246064      -0.04837228
Pt       7.01803505       4.05186407      24.58417401        2       0.00000000       0.00064984       0.01378118      -0.01181902
Pt       2.80721273       6.48298345      24.58417382        2       0.00000000       0.00171932      -0.00797973      -0.05196968
Pt       5.61442806       6.48298330      24.58417394        2       0.00000000       0.21832052       0.12154273       0.25447100
Pt       8.42164223       6.48298339      24.58417374        2       0.00000000      -0.21375667       0.12984881       0.25650969
Pt       0.00336644       0.00217145      26.89539107        1       0.00000000      -0.00760631      -0.00180213       0.00758511
Pt       2.80978481       0.00886660      27.14691187        1       0.00000000      -0.01023098      -0.00884591       0.00302633
Pt       5.61454084       0.00194442      26.89656334        1       0.00000000       0.00158926      -0.00313419       0.00777458
Pt       1.40434413       2.43978358      26.89600227        1       0.00000000       0.01156248      -0.00201437       0.00466691
Pt       4.20824409       2.43866139      26.89494129        1       0.00000000       0.00343239      -0.00000738       0.00735956
Pt       7.01920528       2.43316734      26.90685399        1       0.00000000      -0.00412823       0.01494060      -0.00150608
Pt       2.80812445       4.86961665      26.91365244        1       0.00000000      -0.00102565      -0.00830156      -0.00343301
Pt       5.61240707       4.86909297      26.89996651        1       0.00000000       0.00346362      -0.00004465      -0.00756090
Pt       8.42396931       4.87129918      26.89874531        1       0.00000000      -0.00400407      -0.00866527      -0.00364999
C        2.79907121       0.02095847      29.23072829        0       1.00000000       0.02258402      -0.04001312       0.00751486
H        3.67929889      -0.53955614      29.58241669        0       0.00000000      -0.02503379       0.02010303      -0.02083548
H        1.87024233      -0.46147225      29.57028024        0       0.00000000       0.00793669       0.00886924      -0.00345054
H        2.84232241       1.06667454      29.56876399        0       0.00000000      -0.00111224       0.00172035      -0.00223246
