40
Lattice="8.421641763931781 0.0 0.0 4.2108208819658905 7.293355709136913 0.0 0.0 0.0 46.87624170604845" Properties=species:S:1:pos:R:3:tags:I:1:initial_magmoms:R:1:forces:R:3 charge=0 spin=0 energy=-206.15410353488647 free_energy=-206.15410353488647 stress="0.010495268739759922 1.3043474609730765e-05 1.0799230949487537e-05 1.3043474609730765e-05 0.009710773825645447 5.1750364946201444e-05 1.0799230949487537e-05 5.1750364946201444e-05 -0.00025186114362441003" pbc="T T T"
Pt      -0.00000012      -0.00000004      19.95723457        4       0.00000000       0.00174641       0.00074614       0.01678961
Pt       2.80721395      -0.00000016      19.95723462        4       0.00000000      -0.00053860      -0.00052535       0.01613906
Pt       5.61442787      -0.00000009      19.95723469        4       0.00000000       0.00065175      -0.00770144       0.02619535
Pt       1.40360721       2.43111844      19.95723450        4       0.00000000      -0.00075870       0.00245573       0.02315547
Pt       4.21082082       2.43111841      19.95723461        4       0.00000000      -0.00030625       0.00211802       0.02248003
Pt       7.01803480       2.43111847      19.95723446        4       0.00000000       0.00171022       0.00306094       0.01942372
Pt       2.80721415       4.86223736      19.95723430        4       0.00000000       0.01501212      -0.00047259      -0.00141465
Pt       5.61442796       4.86223738      19.95723451        4       0.00000000      -0.00105398       0.00413370       0.01339600
Pt       8.42164141       4.86223712      19.95723445        4       0.00000000      -0.01590847       0.00144098      -0.00235360
Pt       1.40360727       0.81037260      22.29206796        3       0.00000000       0.00285721       0.01708437      -0.02951965
Pt       4.21082131       0.81037250      22.29206795        3       0.00000000       0.00164930      -0.00697476      -0.03920899
Pt       7.01803474       0.81037257      22.29206787        3       0.00000000       0.00271509       0.00059475      -0.03528920
Pt       2.80721448       3.24149122      22.29206776        3       0.00000000      -0.00308983       0.03863234      -0.08807568
Pt       5.61442763       3.24149122      22.29206790        3       0.00000000      -0.00082058       0.00786357      -0.07090196
Pt       8.42164153       3.24149129      22.29206804        3       0.00000000       0.00169813       0.04174710      -0.09048226
Pt       4.21082092       5.67260997      22.29206741        3       0.00000000      -0.02325779      -0.00969707      -0.06535929
Pt       7.01803486       5.67261038      22.29206784        3       0.00000000       0.02196739      -0.00661734      -0.06918404
Pt       9.82524821       5.67261064      22.29206811        3       0.00000000      -0.00038100      -0.04378873      -0.11147980
Pt      -0.00000055       1.62074564      24.58417373        2       0.00000000      -0.04368962      -0.15337308       0.07909655
Pt       2.80721438       1.62074544      24.58417388        2       0.00000000       0.04140735      -0.14962265       0.06812521
Pt       5.61442780       1.62074536      24.58417376        2       0.00000000      -0.00573591      -0.01931571      -0.01143587
Pt       1.40360636       4.05186448      24.58417388        2       0.00000000      -0.00094549       0.05703288      -0.18250026
Pt       4.21082089       4.05186396      24.58417385        2       0.00000000      -0.05480308      -0.03401659      -0.10867115
Pt       7.01803505       4.05186407      24.58417401        2       0.00000000       0.05991840      -0.02821972      -0.11035124
Pt       2.80721273       6.48298345      24.58417382        2       0.00000000       0.19010340       0.12200785       0.33354926
Pt       5.61442806       6.48298330      24.58417394        2       0.00000000       0.00105999       0.05514276       0.08497974
Pt       8.42164223       6.48298339      24.58417374        2       0.00000000      -0.19056769       0.13578388       0.33073464
Pt       0.02429296      -0.03327677      27.00982645        1       0.00000000      -0.03490549      -0.00382679      -0.00902189
Pt       2.78604041      -0.03448975      27.00665459        1       0.00000000       0.03564112      -0.00201196      -0.00776185
Pt       5.61583636      -0.01442335      26.91189927        1       0.00000000      -0.00122553      -0.00548789      -0.03761404
Pt       1.40224033       2.46574637      26.87195752        1       0.00000000       0.00152467       0.01728827      -0.00782071
Pt       4.20902727       2.40760528      26.91138788        1       0.00000000      -0.00116327      -0.02510662       0.00613631
Pt       7.01724380       2.40749444      26.91070619        1       0.00000000       0.00464670      -0.02728226       0.00757994
Pt       2.80421054       4.84904960      26.91352719        1       0.00000000      -0.00062985       0.00990750       0.01203871
Pt       5.61373338       4.79078223      26.88016785        1       0.00000000       0.00207851      -0.02309375       0.00214771
Pt       8.42419960       4.84922549      26.91266296        1       0.00000000       0.00213610       0.01142461       0.01260584
C        1.40262071       0.04756230      28.89603111        0       1.00000000      -0.00404220       0.04283209      -0.01436639
H        1.40312911       1.06543912      29.30114794        0       0.00000000      -0.00186814       0.01232168      -0.02234722
H        2.28237319      -0.52556043      29.24961533        0       0.00000000       0.03219288      -0.01759510       0.01469970
H        0.52503102      -0.52646240      29.25266417        0       0.00000000      -0.03502551      -0.01888946       0.02588691
