40
Lattice="8.421641763931781 0.0 0.0 4.2108208819658905 7.293355709136913 0.0 0.0 0.0 46.87624170604845" Properties=species:S:1:pos:R:3:tags:I:1:initial_magmoms:R:1:forces:R:3 charge=0 spin=0 energy=-206.8976242715808 free_energy=-206.8976242715808 stress="0.010384989902377129 -3.826936335826758e-06 1.9433105080679525e-06 -3.826936335826758e-06 0.010358607396483421 1.1898220691364259e-05 1.9433105080679525e-06 1.1898220691364259e-05 -0.00032423422089777887" pbc="T T T"
Pt      -0.00000012      -0.00000004      19.95723457        4       0.00000000       0.00198589      -0.00379432       0.01915648
Pt       2.80721395      -0.00000016      19.95723462        4       0.00000000      -0.00005074      -0.00027577       0.01332284
Pt       5.61442787      -0.00000009      19.95723469        4       0.00000000      -0.00171014      -0.00529463       0.01720661
Pt       1.40360721       2.43111844      19.95723450        4       0.00000000       0.00521221       0.00023600       0.01718420
Pt       4.21082082       2.43111841      19.95723461        4       0.00000000      -0.00382790      -0.00054876       0.01916201
Pt       7.01803480       2.43111847      19.95723446        4       0.00000000      -0.00002354      -0.00026812       0.02533212
Pt       2.80721415       4.86223736      19.95723430        4       0.00000000       0.00029616      -0.00022289      -0.03662303
Pt       5.61442796       4.86223738      19.95723451        4       0.00000000      -0.00315200       0.00373163       0.01722979
Pt       8.42164141       4.86223712      19.95723445        4       0.00000000       0.00175720       0.00304123       0.01927677
Pt       1.40360727       0.81037260      22.29206796        3       0.00000000       0.00293141       0.00067739      -0.00248168
Pt       4.21082131       0.81037250      22.29206795        3       0.00000000      -0.00044688      -0.00469833      -0.00227834
Pt       7.01803474       0.81037257      22.29206787        3       0.00000000       0.00443201      -0.01259333      -0.06681818
Pt       2.80721448       3.24149122      22.29206776        3       0.00000000      -0.00195598       0.07480761      -0.15147483
Pt       5.61442763       3.24149122      22.29206790        3       0.00000000      -0.01246341       0.00026568      -0.06740391
Pt       8.42164153       3.24149129      22.29206804        3       0.00000000       0.00747188       0.00830274      -0.06741481
Pt       4.21082092       5.67260997      22.29206741        3       0.00000000      -0.06439929      -0.04072932      -0.14942056
Pt       7.01803486       5.67261038      22.29206784        3       0.00000000      -0.00298680       0.00053872      -0.00256722
Pt       9.82524821       5.67261064      22.29206811        3       0.00000000       0.06675906      -0.03812210      -0.15027334
Pt      -0.00000055       1.62074564      24.58417373        2       0.00000000       0.00702947      -0.00031079      -0.02731076
Pt       2.80721438       1.62074544      24.58417388        2       0.00000000      -0.00367926      -0.24315010       0.25356501
Pt       5.61442780       1.62074536      24.58417376        2       0.00000000      -0.00660086       0.00033350      -0.02349331
Pt       1.40360636       4.05186448      24.58417388        2       0.00000000       0.00849826       0.01560377      -0.04803554
Pt       4.21082089       4.05186396      24.58417385        2       0.00000000      -0.00937116       0.01252148      -0.04842945
Pt       7.01803505       4.05186407      24.58417401        2       0.00000000       0.00065182       0.01379514      -0.01163597
Pt       2.80721273       6.48298345      24.58417382        2       0.00000000       0.00169390      -0.00799649      -0.05201307
Pt       5.61442806       6.48298330      24.58417394        2       0.00000000       0.21832807       0.12147333       0.25442216
Pt       8.42164223       6.48298339      24.58417374        2       0.00000000      -0.21377812       0.12987056       0.25650734
Pt       0.00337170       0.00214082      26.89537350        1       0.00000000      -0.00756639      -0.00169070       0.00768878
Pt       2.80977188       0.00880851      27.14689135        1       0.00000000      -0.01034922      -0.00865262       0.00334591
Pt       5.61454045       0.00198103      26.89655686        1       0.00000000       0.00158648      -0.00324320       0.00783863
Pt       1.40433344       2.43977559      26.89598946        1       0.00000000       0.01167159      -0.00191726       0.00467083
Pt       4.20826264       2.43869056      26.89489555        1       0.00000000       0.00336965      -0.00014704       0.00753130
Pt       7.01925857       2.43310900      26.90685232        1       0.00000000      -0.00424771       0.01527392      -0.00151594
Pt       2.80818159       4.86964048      26.91366760        1       0.00000000      -0.00127714      -0.00844439      -0.00346443
Pt       5.61239445       4.86908079      26.90001924        1       0.00000000       0.00366786      -0.00013232      -0.00772025
Pt       8.42400908       4.87136894      26.89875662        1       0.00000000      -0.00409400      -0.00901413      -0.00373474
C        2.79891640       0.02091692      29.23070806        0       1.00000000       0.02438696      -0.04040078       0.00801614
H        2.84244026       1.06659374      29.56876989        0       0.00000000      -0.00108117       0.00243299      -0.00227682
H        3.67899540      -0.53980886      29.58248630        0       0.00000000      -0.02508523       0.02041679      -0.02130745
H        1.87007994      -0.46127418      29.57043946        0       0.00000000       0.00641745       0.00832513      -0.00376333
