40
Lattice="8.421641763931781 0.0 0.0 4.2108208819658905 7.293355709136913 0.0 0.0 0.0 46.87624170604845" Properties=species:S:1:pos:R:3:tags:I:1:initial_magmoms:R:1:forces:R:3 charge=0 spin=0 energy=-206.15309454745972 free_energy=-206.15309454745972 stress="0.010531637817621231 1.0097515769302845e-05 -3.19558388639507e-08 1.0097515769302845e-05 0.00969975721091032 0.0001229407062055543 -3.19558388639507e-08 0.0001229407062055543 -0.00025284203002229333" pbc="T T T"
Pt      -0.00000012      -0.00000004      19.95723457        4       0.00000000       0.00093436      -0.00063917       0.01642746
Pt       2.80721395      -0.00000016      19.95723462        4       0.00000000      -0.00002874      -0.00214335       0.01559616
Pt       5.61442787      -0.00000009      19.95723469        4       0.00000000       0.00046142      -0.00835341       0.02645421
Pt       1.40360721       2.43111844      19.95723450        4       0.00000000      -0.00073940       0.00151284       0.02274078
Pt       4.21082082       2.43111841      19.95723461        4       0.00000000      -0.00005844       0.00093346       0.02325223
Pt       7.01803480       2.43111847      19.95723446        4       0.00000000       0.00086069       0.00229595       0.02003063
Pt       2.80721415       4.86223736      19.95723430        4       0.00000000       0.01495032       0.00178283      -0.00114845
Pt       5.61442796       4.86223738      19.95723451        4       0.00000000      -0.00088291       0.00410284       0.01336381
Pt       8.42164141       4.86223712      19.95723445        4       0.00000000      -0.01495245       0.00359508      -0.00277088
Pt       1.40360727       0.81037260      22.29206796        3       0.00000000       0.00296766       0.01782494      -0.02974770
Pt       4.21082131       0.81037250      22.29206795        3       0.00000000       0.00006153      -0.00705292      -0.03631716
Pt       7.01803474       0.81037257      22.29206787        3       0.00000000       0.00447127       0.00034359      -0.03377404
Pt       2.80721448       3.24149122      22.29206776        3       0.00000000      -0.00437050       0.04323000      -0.09398545
Pt       5.61442763       3.24149122      22.29206790        3       0.00000000      -0.00041246       0.00595220      -0.07056338
Pt       8.42164153       3.24149129      22.29206804        3       0.00000000       0.00318980       0.04561589      -0.09487684
Pt       4.21082092       5.67260997      22.29206741        3       0.00000000      -0.02136068      -0.01079938      -0.06551962
Pt       7.01803486       5.67261038      22.29206784        3       0.00000000       0.02084293      -0.00657652      -0.06686415
Pt       9.82524821       5.67261064      22.29206811        3       0.00000000       0.00127930      -0.04046578      -0.10853014
Pt      -0.00000055       1.62074564      24.58417373        2       0.00000000      -0.03937430      -0.14644580       0.07407728
Pt       2.80721438       1.62074544      24.58417388        2       0.00000000       0.03946818      -0.14255875       0.06552787
Pt       5.61442780       1.62074536      24.58417376        2       0.00000000      -0.00596825      -0.02038428      -0.01313171
Pt       1.40360636       4.05186448      24.58417388        2       0.00000000      -0.00269353       0.07249064      -0.19160093
Pt       4.21082089       4.05186396      24.58417385        2       0.00000000      -0.05338901      -0.02847802      -0.10509448
Pt       7.01803505       4.05186407      24.58417401        2       0.00000000       0.05675438      -0.01976140      -0.10649548
Pt       2.80721273       6.48298345      24.58417382        2       0.00000000       0.18488716       0.12331276       0.33430716
Pt       5.61442806       6.48298330      24.58417394        2       0.00000000       0.00569323       0.06895478       0.09024180
Pt       8.42164223       6.48298339      24.58417374        2       0.00000000      -0.19178590       0.13710177       0.33677807
Pt       0.02275782      -0.03218122      27.00844999        1       0.00000000      -0.04172858      -0.00853444      -0.00720573
Pt       2.78128732      -0.03281497      27.01142783        1       0.00000000       0.03763771      -0.00547885      -0.00931775
Pt       5.61400047      -0.01192514      26.91333370        1       0.00000000      -0.00061011      -0.00050855      -0.03818978
Pt       1.40283425       2.47131576      26.87009567        1       0.00000000      -0.00123507       0.00737591      -0.01362624
Pt       4.21003989       2.41175754      26.90948730        1       0.00000000      -0.00196577      -0.02836564       0.00470855
Pt       7.01716257       2.41313132      26.90902908        1       0.00000000       0.00123162      -0.03274139       0.00536731
Pt       2.80454621       4.85353937      26.91438090        1       0.00000000      -0.00334720       0.00842421       0.01323440
Pt       5.61418405       4.79899834      26.87992044        1       0.00000000      -0.00048852      -0.03533003       0.00792206
Pt       8.42474357       4.85497500      26.91398253        1       0.00000000       0.00063264       0.00830163       0.01333881
C        1.40430811      -0.04901833      28.90206427        0       1.00000000       0.00371542      -0.03275638      -0.01455575
H        0.52518724       0.53038418      29.24610820        0       0.00000000      -0.02441133       0.01875005       0.01506461
H        2.28362046       0.52871673      29.24791027        0       0.00000000       0.02896310       0.01767330       0.02430068
H        1.40304248      -1.06126315      29.32067113        0       0.00000000       0.00080031      -0.01220096      -0.01941841
