40
Lattice="8.421641763931781 0.0 0.0 4.2108208819658905 7.293355709136913 0.0 0.0 0.0 46.87624170604845" Properties=species:S:1:pos:R:3:tags:I:1:initial_magmoms:R:1:forces:R:3 charge=0 spin=0 energy=-206.89530112094604 free_energy=-206.89530112094604 stress="0.010379251092672348 -1.1394487955840304e-05 -3.059778919123346e-06 -1.1394487955840304e-05 0.010334223508834839 2.788454366964288e-05 -3.059778919123346e-06 2.788454366964288e-05 -0.0003535731812007725" pbc="T T T"
Pt      -0.00000012      -0.00000004      19.95723457        4       0.00000000       0.00275068      -0.00397207       0.01925904
Pt       2.80721395      -0.00000016      19.95723462        4       0.00000000       0.00050848      -0.00070332       0.01327944
Pt       5.61442787      -0.00000009      19.95723469        4       0.00000000      -0.00125055      -0.00551691       0.01721161
Pt       1.40360721       2.43111844      19.95723450        4       0.00000000       0.00561970       0.00030456       0.01713464
Pt       4.21082082       2.43111841      19.95723461        4       0.00000000      -0.00338009      -0.00047740       0.01926765
Pt       7.01803480       2.43111847      19.95723446        4       0.00000000       0.00031243      -0.00045283       0.02519862
Pt       2.80721415       4.86223736      19.95723430        4       0.00000000       0.00004789      -0.00002427      -0.03673293
Pt       5.61442796       4.86223738      19.95723451        4       0.00000000      -0.00291367       0.00365674       0.01733466
Pt       8.42164141       4.86223712      19.95723445        4       0.00000000       0.00274716       0.00274404       0.01933474
Pt       1.40360727       0.81037260      22.29206796        3       0.00000000       0.00511877      -0.00112810      -0.00235709
Pt       4.21082131       0.81037250      22.29206795        3       0.00000000       0.00142936      -0.00538425      -0.00453772
Pt       7.01803474       0.81037257      22.29206787        3       0.00000000       0.00625313      -0.01335739      -0.06790484
Pt       2.80721448       3.24149122      22.29206776        3       0.00000000      -0.00045342       0.07473102      -0.15162022
Pt       5.61442763       3.24149122      22.29206790        3       0.00000000      -0.01091075      -0.00086180      -0.06563406
Pt       8.42164153       3.24149129      22.29206804        3       0.00000000       0.00914327       0.00706803      -0.06572372
Pt       4.21082092       5.67260997      22.29206741        3       0.00000000      -0.06363360      -0.04132131      -0.14974959
Pt       7.01803486       5.67261038      22.29206784        3       0.00000000      -0.00087640      -0.00038683      -0.00387360
Pt       9.82524821       5.67261064      22.29206811        3       0.00000000       0.06750650      -0.03803293      -0.14903378
Pt      -0.00000055       1.62074564      24.58417373        2       0.00000000       0.00412549       0.00343665      -0.01773702
Pt       2.80721438       1.62074544      24.58417388        2       0.00000000      -0.01193414      -0.23904493       0.25804454
Pt       5.61442780       1.62074536      24.58417376        2       0.00000000      -0.01684149       0.00461400      -0.01720905
Pt       1.40360636       4.05186448      24.58417388        2       0.00000000       0.00308554       0.01452410      -0.05623718
Pt       4.21082089       4.05186396      24.58417385        2       0.00000000      -0.01313205       0.00976178      -0.05945098
Pt       7.01803505       4.05186407      24.58417401        2       0.00000000      -0.00396593       0.01847688      -0.02930066
Pt       2.80721273       6.48298345      24.58417382        2       0.00000000      -0.00150639      -0.00651142      -0.06251303
Pt       5.61442806       6.48298330      24.58417394        2       0.00000000       0.21062054       0.12816873       0.26132295
Pt       8.42164223       6.48298339      24.58417374        2       0.00000000      -0.21676388       0.13214980       0.25082797
Pt      -0.00881191       0.00724783      26.89706406        1       0.00000000       0.01482477      -0.00592130      -0.00494823
Pt       2.80150134       0.01231763      27.14490035        1       0.00000000       0.00331207      -0.00054713      -0.00323233
Pt       5.61148693       0.00458247      26.89350022        1       0.00000000      -0.02000397      -0.00063091       0.02020781
Pt       1.39629112       2.44491517      26.89832147        1       0.00000000       0.01500124      -0.02310913       0.00369736
Pt       4.19707272       2.44256081      26.89900732        1       0.00000000       0.01819514      -0.01443359      -0.00958375
Pt       7.00891183       2.44469911      26.90675146        1       0.00000000       0.00790717      -0.02489077       0.00191596
Pt       2.80370356       4.86944289      26.90860616        1       0.00000000      -0.00792807       0.00736237       0.01587502
Pt       5.60760386       4.86908188      26.89649624        1       0.00000000      -0.00540937       0.02937793       0.00895562
Pt       8.41666576       4.87177389      26.89791177        1       0.00000000       0.00806238       0.00871715      -0.00318884
C        2.79661247       0.01807835      29.22810418        0       1.00000000      -0.02787943      -0.01593675       0.02042685
H        3.31108326      -0.89198216      29.57032005        0       0.00000000      -0.00247529      -0.00399028       0.00349346
H        1.74776279       0.02251457      29.56261316        0       0.00000000       0.02906792      -0.00014739       0.00235216
H        3.32220370       0.91708380      29.58340298        0       0.00000000      -0.00438144       0.00168952      -0.03457149
