40
Lattice="8.421641763931781 0.0 0.0 4.2108208819658905 7.293355709136913 0.0 0.0 0.0 46.87624170604845" Properties=species:S:1:pos:R:3:tags:I:1:initial_magmoms:R:1:forces:R:3 charge=0 spin=0 energy=-206.89748694247925 free_energy=-206.89748694247925 stress="0.010370926931500435 4.447033461474348e-06 5.263528692012187e-06 4.447033461474348e-06 0.010370058007538319 -3.3050362162612146e-06 5.263528692012187e-06 -3.3050362162612146e-06 -0.0003297301009297371" pbc="T T T"
Pt      -0.00000012      -0.00000004      19.95723457        4       0.00000000      -0.00011531       0.00039253       0.01314415
Pt       2.80721395      -0.00000016      19.95723462        4       0.00000000      -0.00238494      -0.00472054       0.01711953
Pt       5.61442787      -0.00000009      19.95723469        4       0.00000000       0.00151270      -0.00302202       0.01962361
Pt       1.40360721       2.43111844      19.95723450        4       0.00000000      -0.00448715       0.00040056       0.01943258
Pt       4.21082082       2.43111841      19.95723461        4       0.00000000      -0.00053636       0.00011679       0.02545345
Pt       7.01803480       2.43111847      19.95723446        4       0.00000000       0.00500253       0.00124225       0.01731049
Pt       2.80721415       4.86223736      19.95723430        4       0.00000000      -0.00335303       0.00441997       0.01717491
Pt       5.61442796       4.86223738      19.95723451        4       0.00000000       0.00150159       0.00370725       0.01951244
Pt       8.42164141       4.86223712      19.95723445        4       0.00000000       0.00015398      -0.00014918      -0.03688906
Pt       1.40360727       0.81037260      22.29206796        3       0.00000000      -0.00174468      -0.00214575      -0.00285012
Pt       4.21082131       0.81037250      22.29206795        3       0.00000000       0.00311159      -0.01048062      -0.06629416
Pt       7.01803474       0.81037257      22.29206787        3       0.00000000       0.00156344       0.00274228      -0.00570451
Pt       2.80721448       3.24149122      22.29206776        3       0.00000000      -0.01291395       0.00340438      -0.06666967
Pt       5.61442763       3.24149122      22.29206790        3       0.00000000       0.00616460       0.01011897      -0.06604852
Pt       8.42164153       3.24149129      22.29206804        3       0.00000000      -0.00290427       0.07669394      -0.14925602
Pt       4.21082092       5.67260997      22.29206741        3       0.00000000      -0.00410421       0.00356511      -0.00164869
Pt       7.01803486       5.67261038      22.29206784        3       0.00000000       0.06638351      -0.03573705      -0.15130728
Pt       9.82524821       5.67261064      22.29206811        3       0.00000000      -0.06493673      -0.03785206      -0.15233031
Pt      -0.00000055       1.62074564      24.58417373        2       0.00000000       0.00699813      -0.24367028       0.25258365
Pt       2.80721438       1.62074544      24.58417388        2       0.00000000      -0.00767778      -0.00679803      -0.01517898
Pt       5.61442780       1.62074536      24.58417376        2       0.00000000       0.01191883      -0.00779346      -0.01727399
Pt       1.40360636       4.05186448      24.58417388        2       0.00000000      -0.01180571      -0.00715445      -0.03737026
Pt       4.21082089       4.05186396      24.58417385        2       0.00000000       0.00905799       0.00838191      -0.00980350
Pt       7.01803505       4.05186407      24.58417401        2       0.00000000       0.01517334       0.00822716      -0.04562917
Pt       2.80721273       6.48298345      24.58417382        2       0.00000000       0.21541929       0.11339085       0.25137839
Pt       5.61442806       6.48298330      24.58417394        2       0.00000000      -0.20930481       0.11659157       0.25352618
Pt       8.42164223       6.48298339      24.58417374        2       0.00000000       0.00465374      -0.01473907      -0.04256345
Pt       0.00472856      -0.00633782      27.14294555        1       0.00000000      -0.00816833       0.00254336      -0.01114228
Pt       2.80432074      -0.00841399      26.89792531        1       0.00000000       0.03570884      -0.00543049      -0.00140549
Pt       5.62038222      -0.00464373      26.89743329        1       0.00000000      -0.00783216      -0.01103479      -0.00271819
Pt       1.40847762       2.42245188      26.90389354        1       0.00000000      -0.01370335       0.03106171      -0.01846513
Pt       4.21486268       2.42472479      26.90656260        1       0.00000000       0.00407729       0.00848657      -0.00305411
Pt       7.02922748       2.42845207      26.89603232        1       0.00000000      -0.00676422       0.00936598       0.00200790
Pt       2.80909831       4.85775125      26.89702082        1       0.00000000      -0.00775857       0.00216870      -0.00233581
Pt       5.62474487       4.85846215      26.90107064        1       0.00000000      -0.01321602      -0.00373420      -0.01226534
Pt       8.42872601       4.86087081      26.91483622        1       0.00000000      -0.00394306      -0.01200761      -0.00896815
C       -0.00075697      -0.00907852      29.22445945        0       1.00000000      -0.01955048       0.01096496       0.01952546
H       -0.13652277      -1.04586766      29.56368858        0       0.00000000       0.00208827      -0.02508165       0.00672411
H       -0.83505018       0.62224288      29.56547950        0       0.00000000       0.01847467       0.00289427      -0.00292050
H        0.96254896       0.39120111      29.57312699        0       0.00000000      -0.00175920       0.01067023      -0.00442393
