40
Lattice="8.421641763931781 0.0 0.0 4.2108208819658905 7.293355709136913 0.0 0.0 0.0 46.87624170604845" Properties=species:S:1:pos:R:3:tags:I:1:initial_magmoms:R:1:forces:R:3 charge=0 spin=0 energy=-206.1544239694568 free_energy=-206.1544239694568 stress="0.01045165117830038 1.0552996172918938e-05 -1.4506030311167706e-05 1.0552996172918938e-05 0.00967309158295393 7.586012361571193e-05 -1.4506030311167706e-05 7.586012361571193e-05 -0.0003190592979080975" pbc="T T T"
Pt      -0.00000012      -0.00000004      19.95723457        4       0.00000000       0.00168537       0.00169669       0.01681870
Pt       2.80721395      -0.00000016      19.95723462        4       0.00000000      -0.00037324       0.00071763       0.01624476
Pt       5.61442787      -0.00000009      19.95723469        4       0.00000000       0.00051816      -0.00712944       0.02622047
Pt       1.40360721       2.43111844      19.95723450        4       0.00000000      -0.00100109       0.00318654       0.02291556
Pt       4.21082082       2.43111841      19.95723461        4       0.00000000      -0.00013152       0.00352410       0.02219587
Pt       7.01803480       2.43111847      19.95723446        4       0.00000000       0.00129330       0.00447606       0.01942605
Pt       2.80721415       4.86223736      19.95723430        4       0.00000000       0.01560845      -0.00059414      -0.00201070
Pt       5.61442796       4.86223738      19.95723451        4       0.00000000      -0.00110252       0.00512184       0.01304063
Pt       8.42164141       4.86223712      19.95723445        4       0.00000000      -0.01581115       0.00166280      -0.00188337
Pt       1.40360727       0.81037260      22.29206796        3       0.00000000       0.00283554       0.02051295      -0.03324315
Pt       4.21082131       0.81037250      22.29206795        3       0.00000000       0.00196403      -0.00280738      -0.03991064
Pt       7.01803474       0.81037257      22.29206787        3       0.00000000       0.00213457       0.00513997      -0.03814216
Pt       2.80721448       3.24149122      22.29206776        3       0.00000000      -0.00220786       0.04161210      -0.08968651
Pt       5.61442763       3.24149122      22.29206790        3       0.00000000      -0.00086493       0.01226703      -0.06847926
Pt       8.42164153       3.24149129      22.29206804        3       0.00000000       0.00233761       0.04294921      -0.08915117
Pt       4.21082092       5.67260997      22.29206741        3       0.00000000      -0.02307511      -0.00440406      -0.06645666
Pt       7.01803486       5.67261038      22.29206784        3       0.00000000       0.02208062      -0.00106276      -0.06683888
Pt       9.82524821       5.67261064      22.29206811        3       0.00000000       0.00296757      -0.04096002      -0.10674841
Pt      -0.00000055       1.62074564      24.58417373        2       0.00000000      -0.04761472      -0.14938602       0.05014497
Pt       2.80721438       1.62074544      24.58417388        2       0.00000000       0.04662934      -0.15160955       0.04668612
Pt       5.61442780       1.62074536      24.58417376        2       0.00000000      -0.00572516      -0.02341760      -0.02787555
Pt       1.40360636       4.05186448      24.58417388        2       0.00000000      -0.00296119       0.05209450      -0.18329179
Pt       4.21082089       4.05186396      24.58417385        2       0.00000000      -0.04367298      -0.04879691      -0.09780134
Pt       7.01803505       4.05186407      24.58417401        2       0.00000000       0.04912411      -0.04351707      -0.09893764
Pt       2.80721273       6.48298345      24.58417382        2       0.00000000       0.19553883       0.09871830       0.30340528
Pt       5.61442806       6.48298330      24.58417394        2       0.00000000       0.00610695       0.03654909       0.08080635
Pt       8.42164223       6.48298339      24.58417374        2       0.00000000      -0.20738408       0.11743740       0.31554613
Pt       0.01455339      -0.04768139      26.99717724        1       0.00000000       0.01841240      -0.00807389       0.02110073
Pt       2.78873687      -0.04737189      27.00188570        1       0.00000000      -0.03293986      -0.00555854       0.03284981
Pt       5.61424301      -0.03769983      26.90342525        1       0.00000000      -0.00494869       0.03158570       0.01231269
Pt       1.40225342       2.45551098      26.86779245        1       0.00000000      -0.00137411       0.02329542      -0.00451766
Pt       4.21327335       2.38814476      26.91311119        1       0.00000000      -0.01727269       0.01793101      -0.00103842
Pt       7.01357436       2.38817738      26.91282016        1       0.00000000       0.01231254       0.01704528      -0.00242894
Pt       2.80801549       4.83193395      26.91347484        1       0.00000000      -0.01317484       0.00497568       0.01758857
Pt       5.61377002       4.77922516      26.88506653        1       0.00000000      -0.00004077      -0.03285477      -0.00432133
Pt       8.41949003       4.83340629      26.91274305        1       0.00000000       0.01154848       0.00471234       0.01693208
C        1.40865285       0.09001108      28.88429778        0       1.00000000       0.01267731      -0.01654118      -0.01138763
H        0.52507443      -0.47132906      29.25065679        0       0.00000000      -0.00566088      -0.01437395      -0.01183557
H        1.40578215       1.11743774      29.26369078        0       0.00000000       0.00681720       0.02179822      -0.00282090
H        2.28596485      -0.47361710      29.26003571        0       0.00000000       0.01474493      -0.01792234       0.01457284
