40
Lattice="8.421641763931781 0.0 0.0 4.2108208819658905 7.293355709136913 0.0 0.0 0.0 46.87624170604845" Properties=species:S:1:pos:R:3:tags:I:1:initial_magmoms:R:1:forces:R:3 charge=0 spin=0 energy=-206.89711500949585 free_energy=-206.89711500949585 stress="0.010356184095144272 -1.6529766071471386e-05 -1.201200757350307e-05 -1.6529766071471386e-05 0.010370389558374882 1.640276786929462e-05 -1.201200757350307e-05 1.640276786929462e-05 -0.0003491796087473631" pbc="T T T"
Pt      -0.00000012      -0.00000004      19.95723457        4       0.00000000       0.00236480      -0.00334676       0.01943059
Pt       2.80721395      -0.00000016      19.95723462        4       0.00000000       0.00058834       0.00023214       0.01318385
Pt       5.61442787      -0.00000009      19.95723469        4       0.00000000      -0.00131478      -0.00473884       0.01747336
Pt       1.40360721       2.43111844      19.95723450        4       0.00000000       0.00565600       0.00070115       0.01689775
Pt       4.21082082       2.43111841      19.95723461        4       0.00000000      -0.00357522       0.00022956       0.01924348
Pt       7.01803480       2.43111847      19.95723446        4       0.00000000       0.00063516       0.00016841       0.02529382
Pt       2.80721415       4.86223736      19.95723430        4       0.00000000      -0.00027311      -0.00093696      -0.03675883
Pt       5.61442796       4.86223738      19.95723451        4       0.00000000      -0.00243533       0.00413097       0.01737395
Pt       8.42164141       4.86223712      19.95723445        4       0.00000000       0.00219844       0.00341321       0.01913903
Pt       1.40360727       0.81037260      22.29206796        3       0.00000000       0.00500011       0.00149946      -0.00264452
Pt       4.21082131       0.81037250      22.29206795        3       0.00000000       0.00171175      -0.00263683      -0.00469023
Pt       7.01803474       0.81037257      22.29206787        3       0.00000000       0.00658331      -0.01109978      -0.06624269
Pt       2.80721448       3.24149122      22.29206776        3       0.00000000      -0.00019763       0.07446546      -0.14892510
Pt       5.61442763       3.24149122      22.29206790        3       0.00000000      -0.01016547       0.00215426      -0.06721500
Pt       8.42164153       3.24149129      22.29206804        3       0.00000000       0.00945901       0.00954386      -0.06750429
Pt       4.21082092       5.67260997      22.29206741        3       0.00000000      -0.06452540      -0.04028473      -0.15144494
Pt       7.01803486       5.67261038      22.29206784        3       0.00000000      -0.00080277       0.00272971      -0.00106826
Pt       9.82524821       5.67261064      22.29206811        3       0.00000000       0.06805278      -0.03624369      -0.14992343
Pt      -0.00000055       1.62074564      24.58417373        2       0.00000000      -0.00216701      -0.00372916      -0.02309717
Pt       2.80721438       1.62074544      24.58417388        2       0.00000000      -0.00928434      -0.24117860       0.24248783
Pt       5.61442780       1.62074536      24.58417376        2       0.00000000      -0.01185334      -0.00538880      -0.02658007
Pt       1.40360636       4.05186448      24.58417388        2       0.00000000       0.00262694       0.00865253      -0.05158157
Pt       4.21082089       4.05186396      24.58417385        2       0.00000000      -0.01591445       0.00661452      -0.04800125
Pt       7.01803505       4.05186407      24.58417401        2       0.00000000      -0.00737181       0.00756814      -0.00804649
Pt       2.80721273       6.48298345      24.58417382        2       0.00000000      -0.00399915      -0.01240577      -0.04999791
Pt       5.61442806       6.48298330      24.58417394        2       0.00000000       0.21204038       0.11727493       0.25453115
Pt       8.42164223       6.48298339      24.58417374        2       0.00000000      -0.21749319       0.11882355       0.25232491
Pt      -0.00395942      -0.00299491      26.89619169        1       0.00000000      -0.01876167      -0.00037511       0.00344482
Pt       2.79781031      -0.00286638      27.14127021        1       0.00000000       0.01397502       0.02113247       0.00818962
Pt       5.60439248      -0.00490833      26.89622963        1       0.00000000       0.01084208      -0.00382636       0.00495342
Pt       1.39820232       2.43164759      26.89600847        1       0.00000000       0.00488837       0.00621467       0.00448040
Pt       4.20276138       2.43117141      26.89593405        1       0.00000000      -0.00341298       0.00688081      -0.00057894
Pt       7.00744408       2.42719239      26.90820874        1       0.00000000       0.01236824       0.01390603      -0.00567411
Pt       2.79785409       4.86178549      26.91286005        1       0.00000000       0.00833487      -0.00205683      -0.00123878
Pt       5.60188172       4.86642954      26.89946716        1       0.00000000       0.01279819      -0.01595746      -0.00315656
Pt       8.41700953       4.86001166      26.89916394        1       0.00000000      -0.00584589       0.00284756      -0.00402838
C        2.80180756       0.03308878      29.22423438        0       1.00000000      -0.01658406      -0.01230488       0.02373479
H        2.90132348       1.07938954      29.55149862        0       0.00000000       0.01108388      -0.03062402      -0.00628915
H        3.65231174      -0.57118248      29.57435217        0       0.00000000      -0.00803115       0.01832319      -0.00429749
H        1.85027010      -0.39363506      29.57609113        0       0.00000000       0.01280100      -0.00037197      -0.01319767
