40
Lattice="8.421641763931781 0.0 0.0 4.2108208819658905 7.293355709136913 0.0 0.0 0.0 46.87624170604845" Properties=species:S:1:pos:R:3:tags:I:1:initial_magmoms:R:1:forces:R:3 charge=0 spin=0 energy=-206.894007938573 free_energy=-206.894007938573 stress="0.010366462171077728 1.2793566384061705e-06 1.6085412426036783e-05 1.2793566384061705e-06 0.010263067670166492 2.2571219233213924e-05 1.6085412426036783e-05 2.2571219233213924e-05 -0.0004223352298140526" pbc="T T T"
Pt      -0.00000012      -0.00000004      19.95723457        4       0.00000000       0.00174714      -0.00542113       0.01914545
Pt       2.80721395      -0.00000016      19.95723462        4       0.00000000       0.00021845      -0.00169367       0.01309854
Pt       5.61442787      -0.00000009      19.95723469        4       0.00000000      -0.00173745      -0.00647903       0.01700148
Pt       1.40360721       2.43111844      19.95723450        4       0.00000000       0.00523984      -0.00091725       0.01742580
Pt       4.21082082       2.43111841      19.95723461        4       0.00000000      -0.00401877      -0.00155550       0.01907302
Pt       7.01803480       2.43111847      19.95723446        4       0.00000000      -0.00011986      -0.00157074       0.02516306
Pt       2.80721415       4.86223736      19.95723430        4       0.00000000       0.00048438       0.00026849      -0.03683707
Pt       5.61442796       4.86223738      19.95723451        4       0.00000000      -0.00324320       0.00216567       0.01752425
Pt       8.42164141       4.86223712      19.95723445        4       0.00000000       0.00249085       0.00184263       0.01936318
Pt       1.40360727       0.81037260      22.29206796        3       0.00000000       0.00275957      -0.00560684      -0.00436578
Pt       4.21082131       0.81037250      22.29206795        3       0.00000000      -0.00247932      -0.00894666      -0.00156950
Pt       7.01803474       0.81037257      22.29206787        3       0.00000000       0.00411333      -0.01660181      -0.06753115
Pt       2.80721448       3.24149122      22.29206776        3       0.00000000      -0.00227124       0.07265617      -0.15183684
Pt       5.61442763       3.24149122      22.29206790        3       0.00000000      -0.01276532      -0.00485632      -0.06720210
Pt       8.42164153       3.24149129      22.29206804        3       0.00000000       0.00703456       0.00247035      -0.06583879
Pt       4.21082092       5.67260997      22.29206741        3       0.00000000      -0.06325652      -0.04423292      -0.14769432
Pt       7.01803486       5.67261038      22.29206784        3       0.00000000      -0.00316258      -0.00535185      -0.00677802
Pt       9.82524821       5.67261064      22.29206811        3       0.00000000       0.06565295      -0.04156911      -0.14683039
Pt      -0.00000055       1.62074564      24.58417373        2       0.00000000       0.00714614       0.02440832      -0.02817832
Pt       2.80721438       1.62074544      24.58417388        2       0.00000000       0.00230042      -0.22675464       0.26189819
Pt       5.61442780       1.62074536      24.58417376        2       0.00000000      -0.00753246       0.01349946      -0.01436060
Pt       1.40360636       4.05186448      24.58417388        2       0.00000000       0.01464044       0.02916544      -0.06035432
Pt       4.21082089       4.05186396      24.58417385        2       0.00000000      -0.01427968       0.02537055      -0.05908099
Pt       7.01803505       4.05186407      24.58417401        2       0.00000000       0.00260877       0.03197461      -0.02826971
Pt       2.80721273       6.48298345      24.58417382        2       0.00000000      -0.00645394       0.00117293      -0.05889217
Pt       5.61442806       6.48298330      24.58417394        2       0.00000000       0.21120498       0.13906321       0.23333785
Pt       8.42164223       6.48298339      24.58417374        2       0.00000000      -0.19640942       0.14456429       0.24016716
Pt      -0.00386850       0.02529881      26.89079187        1       0.00000000       0.01588344      -0.01670512       0.02018455
Pt       2.81455306       0.02234698      27.13464888        1       0.00000000      -0.00830908      -0.00726867       0.00019815
Pt       5.61777016       0.02318522      26.89945233        1       0.00000000      -0.00410578      -0.01207672       0.00270076
Pt       1.40975040       2.45654059      26.89515943        1       0.00000000       0.00332491      -0.01920505       0.00959556
Pt       4.21255590       2.46079188      26.89953994        1       0.00000000      -0.00608812      -0.02408423      -0.01082479
Pt       7.01849888       2.46418936      26.90812099        1       0.00000000       0.00565287      -0.03917196      -0.00110911
Pt       2.80868980       4.88660406      26.91411337        1       0.00000000       0.00240617      -0.00552057      -0.00028779
Pt       5.61174190       4.89045599      26.89444448        1       0.00000000       0.00474098      -0.00159339       0.01498068
Pt       8.42960843       4.88675035      26.89668009        1       0.00000000      -0.00804357      -0.00349254      -0.00116610
C        2.80908530       0.01606057      29.21685460        0       1.00000000      -0.04179933       0.00934749       0.00334287
H        3.31176305       0.92996962      29.56316633        0       0.00000000       0.00647646       0.02948374       0.00948859
H        3.34257820      -0.87739770      29.57039076        0       0.00000000       0.01526479      -0.03101711      -0.01512990
H        1.75918051      -0.00198951      29.54415334        0       0.00000000       0.00468406       0.00423923       0.03044905
