40
Lattice="8.421641763931781 0.0 0.0 4.2108208819658905 7.293355709136913 0.0 0.0 0.0 46.87624170604845" Properties=species:S:1:pos:R:3:tags:I:1:initial_magmoms:R:1:forces:R:3 charge=0 spin=0 energy=-206.89530302829468 free_energy=-206.89530302829468 stress="0.010378886014223099 -1.1345286111463793e-05 -2.98522559205594e-06 -1.1345286111463793e-05 0.01033425610512495 2.7890931960428134e-05 -2.98522559205594e-06 2.7890931960428134e-05 -0.00035422705695964396" pbc="T T T"
Pt      -0.00000012      -0.00000004      19.95723457        4       0.00000000       0.00274916      -0.00397397       0.01925858
Pt       2.80721395      -0.00000016      19.95723462        4       0.00000000       0.00050654      -0.00070240       0.01327908
Pt       5.61442787      -0.00000009      19.95723469        4       0.00000000      -0.00125063      -0.00551547       0.01721441
Pt       1.40360721       2.43111844      19.95723450        4       0.00000000       0.00561985       0.00030570       0.01713647
Pt       4.21082082       2.43111841      19.95723461        4       0.00000000      -0.00337783      -0.00047580       0.01926695
Pt       7.01803480       2.43111847      19.95723446        4       0.00000000       0.00031375      -0.00045262       0.02519819
Pt       2.80721415       4.86223736      19.95723430        4       0.00000000       0.00005446      -0.00002468      -0.03673204
Pt       5.61442796       4.86223738      19.95723451        4       0.00000000      -0.00291846       0.00365663       0.01733428
Pt       8.42164141       4.86223712      19.95723445        4       0.00000000       0.00274580       0.00274527       0.01933601
Pt       1.40360727       0.81037260      22.29206796        3       0.00000000       0.00511672      -0.00112568      -0.00237243
Pt       4.21082131       0.81037250      22.29206795        3       0.00000000       0.00142552      -0.00538281      -0.00453482
Pt       7.01803474       0.81037257      22.29206787        3       0.00000000       0.00625039      -0.01335210      -0.06790633
Pt       2.80721448       3.24149122      22.29206776        3       0.00000000      -0.00045423       0.07473049      -0.15161684
Pt       5.61442763       3.24149122      22.29206790        3       0.00000000      -0.01090592      -0.00086049      -0.06563893
Pt       8.42164153       3.24149129      22.29206804        3       0.00000000       0.00914211       0.00707135      -0.06572975
Pt       4.21082092       5.67260997      22.29206741        3       0.00000000      -0.06362802      -0.04131566      -0.14972372
Pt       7.01803486       5.67261038      22.29206784        3       0.00000000      -0.00088147      -0.00038084      -0.00388133
Pt       9.82524821       5.67261064      22.29206811        3       0.00000000       0.06750780      -0.03803587      -0.14903989
Pt      -0.00000055       1.62074564      24.58417373        2       0.00000000       0.00412292       0.00343102      -0.01773156
Pt       2.80721438       1.62074544      24.58417388        2       0.00000000      -0.01192960      -0.23898169       0.25800952
Pt       5.61442780       1.62074536      24.58417376        2       0.00000000      -0.01684831       0.00459770      -0.01716902
Pt       1.40360636       4.05186448      24.58417388        2       0.00000000       0.00312325       0.01451690      -0.05617835
Pt       4.21082089       4.05186396      24.58417385        2       0.00000000      -0.01317048       0.00979543      -0.05944213
Pt       7.01803505       4.05186407      24.58417401        2       0.00000000      -0.00399831       0.01843492      -0.02931083
Pt       2.80721273       6.48298345      24.58417382        2       0.00000000      -0.00147591      -0.00654977      -0.06253275
Pt       5.61442806       6.48298330      24.58417394        2       0.00000000       0.21061036       0.12812439       0.26123112
Pt       8.42164223       6.48298339      24.58417374        2       0.00000000      -0.21668799       0.13213941       0.25081274
Pt      -0.00875502       0.00722311      26.89706053        1       0.00000000       0.01471496      -0.00585909      -0.00495187
Pt       2.80160417       0.01231516      27.14483849        1       0.00000000       0.00301695      -0.00051291      -0.00362395
Pt       5.61155665       0.00455843      26.89350569        1       0.00000000      -0.02018196      -0.00056173       0.02018684
Pt       1.39627515       2.44489118      26.89833401        1       0.00000000       0.01510372      -0.02302412       0.00360658
Pt       4.19706896       2.44259597      26.89899962        1       0.00000000       0.01823287      -0.01455150      -0.00957398
Pt       7.00890496       2.44466608      26.90676315        1       0.00000000       0.00795223      -0.02481791       0.00188539
Pt       2.80368597       4.86945632      26.90864064        1       0.00000000      -0.00786812       0.00724766       0.01576620
Pt       5.60759766       4.86907620      26.89650523        1       0.00000000      -0.00537012       0.02933661       0.00891620
Pt       8.41662613       4.87175025      26.89789326        1       0.00000000       0.00826870       0.00872532      -0.00314902
C        2.79657226       0.01808028      29.22800049        0       1.00000000      -0.02750712      -0.01593692       0.02052560
H        3.32212670       0.91709775      29.58333201        0       0.00000000      -0.00429963       0.00145671      -0.03448277
H        3.31097507      -0.89201503      29.57022931        0       0.00000000      -0.00234111      -0.00380134       0.00364002
H        1.74770452       0.02252510      29.56238899        0       0.00000000       0.02851712      -0.00012014       0.00271789
