40
Lattice="8.421641763931781 0.0 0.0 4.2108208819658905 7.293355709136913 0.0 0.0 0.0 46.87624170604845" Properties=species:S:1:pos:R:3:tags:I:1:initial_magmoms:R:1:forces:R:3 charge=0 spin=0 energy=-206.8942635232898 free_energy=-206.8942635232898 stress="0.01037306897342205 2.142960875062272e-05 1.72579620993929e-05 2.142960875062272e-05 0.010296136140823364 3.7772784708067775e-05 1.72579620993929e-05 3.7772784708067775e-05 -0.0003926004865206778" pbc="T T T"
Pt      -0.00000012      -0.00000004      19.95723457        4       0.00000000      -0.00066497      -0.00098819       0.01320622
Pt       2.80721395      -0.00000016      19.95723462        4       0.00000000      -0.00328215      -0.00548624       0.01709111
Pt       5.61442787      -0.00000009      19.95723469        4       0.00000000       0.00112771      -0.00433408       0.01924658
Pt       1.40360721       2.43111844      19.95723450        4       0.00000000      -0.00458105      -0.00063693       0.01900620
Pt       4.21082082       2.43111841      19.95723461        4       0.00000000      -0.00080625      -0.00047074       0.02529194
Pt       7.01803480       2.43111847      19.95723446        4       0.00000000       0.00441609      -0.00006781       0.01744236
Pt       2.80721415       4.86223736      19.95723430        4       0.00000000      -0.00418790       0.00315407       0.01726429
Pt       5.61442796       4.86223738      19.95723451        4       0.00000000       0.00143955       0.00247351       0.01917304
Pt       8.42164141       4.86223712      19.95723445        4       0.00000000       0.00000077      -0.00004733      -0.03717182
Pt       1.40360727       0.81037260      22.29206796        3       0.00000000      -0.00427613      -0.00672189      -0.00173558
Pt       4.21082131       0.81037250      22.29206795        3       0.00000000       0.00066315      -0.01433250      -0.06841043
Pt       7.01803474       0.81037257      22.29206787        3       0.00000000      -0.00025796      -0.00096065      -0.00624290
Pt       2.80721448       3.24149122      22.29206776        3       0.00000000      -0.01542011      -0.00107520      -0.06379662
Pt       5.61442763       3.24149122      22.29206790        3       0.00000000       0.00611543       0.00670824      -0.06368066
Pt       8.42164153       3.24149129      22.29206804        3       0.00000000      -0.00442942       0.07498894      -0.15238410
Pt       4.21082092       5.67260997      22.29206741        3       0.00000000      -0.00614874      -0.00011555      -0.00357812
Pt       7.01803486       5.67261038      22.29206784        3       0.00000000       0.06389404      -0.03800272      -0.15069927
Pt       9.82524821       5.67261064      22.29206811        3       0.00000000      -0.06674895      -0.04053236      -0.14876649
Pt      -0.00000055       1.62074564      24.58417373        2       0.00000000       0.01069835      -0.23624155       0.25260001
Pt       2.80721438       1.62074544      24.58417388        2       0.00000000       0.00201345       0.00871683      -0.02350879
Pt       5.61442780       1.62074536      24.58417376        2       0.00000000       0.02096869       0.01506322      -0.01952084
Pt       1.40360636       4.05186448      24.58417388        2       0.00000000       0.00282956       0.01171794      -0.06544950
Pt       4.21082089       4.05186396      24.58417385        2       0.00000000       0.00840074       0.02087084      -0.02723176
Pt       7.01803505       4.05186407      24.58417401        2       0.00000000       0.01054720       0.01054164      -0.05962436
Pt       2.80721273       6.48298345      24.58417382        2       0.00000000       0.22639577       0.12354816       0.24570823
Pt       5.61442806       6.48298330      24.58417394        2       0.00000000      -0.20531131       0.13162592       0.25667712
Pt       8.42164223       6.48298339      24.58417374        2       0.00000000       0.00979213      -0.00724009      -0.07406809
Pt       0.01177473       0.01788584      27.14315915        1       0.00000000      -0.00027307      -0.01740296       0.00218103
Pt       2.82106977       0.00751753      26.89347659        1       0.00000000      -0.01251388      -0.00989289       0.00773556
Pt       5.62262814       0.00939016      26.88853943        1       0.00000000       0.01940794      -0.00873388       0.03979086
Pt       1.41888097       2.44627213      26.89761110        1       0.00000000      -0.01452383      -0.02368193       0.01131986
Pt       4.22576497       2.44797524      26.90743372        1       0.00000000      -0.00531972      -0.02841447      -0.00142273
Pt       7.04302078       2.44236228      26.90144182        1       0.00000000      -0.04410113      -0.00019097      -0.01657022
Pt       2.81512209       4.87380910      26.89992416        1       0.00000000      -0.00114929       0.01359158      -0.00871970
Pt       5.62480695       4.87042498      26.89654063        1       0.00000000       0.00577023       0.02556520       0.00544288
Pt       8.43131928       4.86813001      26.90532061        1       0.00000000       0.00153314       0.02151789       0.02898058
C        0.02401490       0.01951599      29.22687208        0       1.00000000       0.03662553      -0.01811864      -0.00048357
H       -0.50286845       0.91481840      29.58801973        0       0.00000000      -0.00035970       0.01863666      -0.03587931
H        1.07435284       0.02447978      29.55801445        0       0.00000000      -0.04855631      -0.00733064       0.00390186
H       -0.49046546      -0.89279954      29.56133610        0       0.00000000       0.01027229      -0.01770040       0.02688513
