40
Lattice="8.421641763931781 0.0 0.0 4.2108208819658905 7.293355709136913 0.0 0.0 0.0 46.87624170604845" Properties=species:S:1:pos:R:3:tags:I:1:initial_magmoms:R:1:forces:R:3 charge=0 spin=0 energy=-206.89052130527222 free_energy=-206.89052130527222 stress="0.010432472452521324 2.080203785226331e-06 1.257727672054898e-05 2.080203785226331e-06 0.010310159996151924 7.464603550033644e-05 1.257727672054898e-05 7.464603550033644e-05 -0.0003410371718928218" pbc="T T T"
Pt      -0.00000012      -0.00000004      19.95723457        4       0.00000000      -0.00025094      -0.00266128       0.01297660
Pt       2.80721395      -0.00000016      19.95723462        4       0.00000000      -0.00177855      -0.00797912       0.01647442
Pt       5.61442787      -0.00000009      19.95723469        4       0.00000000       0.00176074      -0.00585937       0.01876036
Pt       1.40360721       2.43111844      19.95723450        4       0.00000000      -0.00400800      -0.00312312       0.01924679
Pt       4.21082082       2.43111841      19.95723461        4       0.00000000      -0.00022688      -0.00290318       0.02527251
Pt       7.01803480       2.43111847      19.95723446        4       0.00000000       0.00537188      -0.00263514       0.01731138
Pt       2.80721415       4.86223736      19.95723430        4       0.00000000      -0.00333321       0.00145251       0.01755903
Pt       5.61442796       4.86223738      19.95723451        4       0.00000000       0.00151431       0.00098868       0.01941822
Pt       8.42164141       4.86223712      19.95723445        4       0.00000000       0.00009704       0.00126732      -0.03697369
Pt       1.40360727       0.81037260      22.29206796        3       0.00000000      -0.00252256      -0.01456626      -0.00016421
Pt       4.21082131       0.81037250      22.29206795        3       0.00000000       0.00236983      -0.02151686      -0.06602677
Pt       7.01803474       0.81037257      22.29206787        3       0.00000000       0.00212550      -0.00759464      -0.00000099
Pt       2.80721448       3.24149122      22.29206776        3       0.00000000      -0.01442983      -0.00896556      -0.06554016
Pt       5.61442763       3.24149122      22.29206790        3       0.00000000       0.00695352      -0.00103895      -0.06783209
Pt       8.42164153       3.24149129      22.29206804        3       0.00000000      -0.00321265       0.07239264      -0.15791151
Pt       4.21082092       5.67260997      22.29206741        3       0.00000000      -0.00459202      -0.01043545      -0.00840329
Pt       7.01803486       5.67261038      22.29206784        3       0.00000000       0.06249309      -0.04541633      -0.14882317
Pt       9.82524821       5.67261064      22.29206811        3       0.00000000      -0.06419224      -0.04832137      -0.14751558
Pt      -0.00000055       1.62074564      24.58417373        2       0.00000000       0.00007397      -0.22282055       0.27582249
Pt       2.80721438       1.62074544      24.58417388        2       0.00000000      -0.00320952       0.03522665      -0.01465682
Pt       5.61442780       1.62074536      24.58417376        2       0.00000000       0.01458888       0.02687746      -0.00420448
Pt       1.40360636       4.05186448      24.58417388        2       0.00000000      -0.00472125       0.03772223      -0.05331935
Pt       4.21082089       4.05186396      24.58417385        2       0.00000000       0.00385769       0.04697214      -0.01181910
Pt       7.01803505       4.05186407      24.58417401        2       0.00000000       0.01004510       0.04187135      -0.05350094
Pt       2.80721273       6.48298345      24.58417382        2       0.00000000       0.21325283       0.15607747       0.24222560
Pt       5.61442806       6.48298330      24.58417394        2       0.00000000      -0.20257570       0.16294508       0.23975532
Pt       8.42164223       6.48298339      24.58417374        2       0.00000000       0.01027086       0.03233171      -0.05046812
Pt       0.00536274       0.04997580      27.14681958        1       0.00000000       0.01011759      -0.03940325      -0.00966478
Pt       2.81198584       0.04105171      26.89830364        1       0.00000000       0.02488666      -0.01721768       0.00068155
Pt       5.62595847       0.03700798      26.90096506        1       0.00000000      -0.03052101       0.00624858       0.00026370
Pt       1.40434061       2.47395023      26.89744914        1       0.00000000       0.01826766      -0.01436001       0.00903441
Pt       4.22047718       2.47586006      26.90743355        1       0.00000000      -0.01330175      -0.02554688      -0.00875780
Pt       7.03070494       2.47800407      26.90056526        1       0.00000000      -0.02373629      -0.02225959      -0.01073797
Pt       2.80732904       4.90775675      26.90153012        1       0.00000000       0.01317328      -0.03205905      -0.02195488
Pt       5.62283557       4.90992927      26.89762415        1       0.00000000      -0.01233166      -0.02596025      -0.00012776
Pt       8.42745978       4.91055489      26.90998625        1       0.00000000      -0.00224771      -0.03576430       0.01586520
C        0.01445225       0.01949602      29.22898931        0       1.00000000      -0.02805462      -0.00908399       0.00677316
H        1.05838751       0.01682604      29.57149913        0       0.00000000       0.04806308       0.00103129      -0.00245712
H       -0.49948564      -0.89967046      29.54627983        0       0.00000000      -0.01348962       0.01486874       0.03728836
H       -0.51080385       0.91301488      29.59833207        0       0.00000000      -0.01654747      -0.01078190      -0.03386882
