40
Lattice="8.421641763931781 0.0 0.0 4.2108208819658905 7.293355709136913 0.0 0.0 0.0 46.87624170604845" Properties=species:S:1:pos:R:3:tags:I:1:initial_magmoms:R:1:forces:R:3 charge=0 spin=0 energy=-206.89746405429565 free_energy=-206.89746405429565 stress="0.010370478965342045 4.2665874389058445e-06 5.678467005054699e-06 4.2665874389058445e-06 0.010368691757321358 -2.9440429898386355e-06 5.678467005054699e-06 -2.9440429898386355e-06 -0.00032832834403961897" pbc="T T T"
Pt      -0.00000012      -0.00000004      19.95723457        4       0.00000000      -0.00010677       0.00038423       0.01313705
Pt       2.80721395      -0.00000016      19.95723462        4       0.00000000      -0.00237884      -0.00472768       0.01711586
Pt       5.61442787      -0.00000009      19.95723469        4       0.00000000       0.00151669      -0.00303230       0.01963430
Pt       1.40360721       2.43111844      19.95723450        4       0.00000000      -0.00448949       0.00039833       0.01944454
Pt       4.21082082       2.43111841      19.95723461        4       0.00000000      -0.00053405       0.00009889       0.02545078
Pt       7.01803480       2.43111847      19.95723446        4       0.00000000       0.00500666       0.00123557       0.01731397
Pt       2.80721415       4.86223736      19.95723430        4       0.00000000      -0.00334282       0.00441395       0.01717165
Pt       5.61442796       4.86223738      19.95723451        4       0.00000000       0.00151105       0.00370747       0.01952134
Pt       8.42164141       4.86223712      19.95723445        4       0.00000000       0.00016237      -0.00015295      -0.03689765
Pt       1.40360727       0.81037260      22.29206796        3       0.00000000      -0.00174194      -0.00216498      -0.00285277
Pt       4.21082131       0.81037250      22.29206795        3       0.00000000       0.00313066      -0.01050831      -0.06628770
Pt       7.01803474       0.81037257      22.29206787        3       0.00000000       0.00156885       0.00270562      -0.00574472
Pt       2.80721448       3.24149122      22.29206776        3       0.00000000      -0.01289106       0.00337234      -0.06668333
Pt       5.61442763       3.24149122      22.29206790        3       0.00000000       0.00617751       0.01007339      -0.06606686
Pt       8.42164153       3.24149129      22.29206804        3       0.00000000      -0.00289866       0.07667885      -0.14923503
Pt       4.21082092       5.67260997      22.29206741        3       0.00000000      -0.00408465       0.00354283      -0.00163119
Pt       7.01803486       5.67261038      22.29206784        3       0.00000000       0.06640110      -0.03576220      -0.15128365
Pt       9.82524821       5.67261064      22.29206811        3       0.00000000      -0.06490860      -0.03787110      -0.15231735
Pt      -0.00000055       1.62074564      24.58417373        2       0.00000000       0.00716322      -0.24330281       0.25296283
Pt       2.80721438       1.62074544      24.58417388        2       0.00000000      -0.00795046      -0.00651599      -0.01492931
Pt       5.61442780       1.62074536      24.58417376        2       0.00000000       0.01189892      -0.00773092      -0.01695066
Pt       1.40360636       4.05186448      24.58417388        2       0.00000000      -0.01183151      -0.00735741      -0.03696692
Pt       4.21082089       4.05186396      24.58417385        2       0.00000000       0.00910100       0.00855659      -0.00956193
Pt       7.01803505       4.05186407      24.58417401        2       0.00000000       0.01507223       0.00823987      -0.04556479
Pt       2.80721273       6.48298345      24.58417382        2       0.00000000       0.21530691       0.11347678       0.25140551
Pt       5.61442806       6.48298330      24.58417394        2       0.00000000      -0.20943649       0.11645666       0.25327200
Pt       8.42164223       6.48298339      24.58417374        2       0.00000000       0.00466832      -0.01451094      -0.04302790
Pt       0.00471812      -0.00621147      27.14277985        1       0.00000000      -0.00790538       0.00270977      -0.00972172
Pt       2.80415718      -0.00840219      26.89778823        1       0.00000000       0.03600496      -0.00468582      -0.00070842
Pt       5.62022668      -0.00461058      26.89752280        1       0.00000000      -0.00732389      -0.01034450      -0.00310686
Pt       1.40848051       2.42260797      26.90423479        1       0.00000000      -0.01394176       0.03109956      -0.01966085
Pt       4.21474178       2.42485877      26.90653232        1       0.00000000       0.00439182       0.00841295      -0.00305086
Pt       7.02923584       2.42857026      26.89605534        1       0.00000000      -0.00688975       0.00927827       0.00173602
Pt       2.80904321       4.85791324      26.89705329        1       0.00000000      -0.00761625       0.00180784      -0.00256263
Pt       5.62479732       4.85851677      26.90122593        1       0.00000000      -0.01382461      -0.00390849      -0.01274695
Pt       8.42865170       4.86123134      26.91473805        1       0.00000000      -0.00369768      -0.01335037      -0.00855163
C       -0.00113385      -0.00898254      29.22438292        0       1.00000000      -0.01995787       0.01136005       0.01796274
H       -0.83553861       0.62233383      29.56493190        0       0.00000000       0.01714519       0.00421995      -0.00185224
H        0.96192267       0.39105628      29.57387847        0       0.00000000      -0.00022417       0.01155341      -0.00567089
H       -0.13726392      -1.04569415      29.56341976        0       0.00000000       0.00174907      -0.02785673       0.00750679
