40
Lattice="8.421641763931781 0.0 0.0 4.2108208819658905 7.293355709136913 0.0 0.0 0.0 46.87624170604845" Properties=species:S:1:pos:R:3:tags:I:1:initial_magmoms:R:1:forces:R:3 charge=0 spin=0 energy=-206.89062239474976 free_energy=-206.89062239474976 stress="0.010433562099933624 1.461849478801014e-06 1.4726441804668866e-05 1.461849478801014e-06 0.01030719093978405 7.359591108979657e-05 1.4726441804668866e-05 7.359591108979657e-05 -0.00033698329934850335" pbc="T T T"
Pt      -0.00000012      -0.00000004      19.95723457        4       0.00000000      -0.00021617      -0.00263249       0.01296943
Pt       2.80721395      -0.00000016      19.95723462        4       0.00000000      -0.00174441      -0.00797235       0.01650417
Pt       5.61442787      -0.00000009      19.95723469        4       0.00000000       0.00176711      -0.00585746       0.01877389
Pt       1.40360721       2.43111844      19.95723450        4       0.00000000      -0.00396727      -0.00311831       0.01924325
Pt       4.21082082       2.43111841      19.95723461        4       0.00000000      -0.00019874      -0.00289526       0.02526488
Pt       7.01803480       2.43111847      19.95723446        4       0.00000000       0.00537102      -0.00259975       0.01733051
Pt       2.80721415       4.86223736      19.95723430        4       0.00000000      -0.00327502       0.00145628       0.01759630
Pt       5.61442796       4.86223738      19.95723451        4       0.00000000       0.00156870       0.00099102       0.01940554
Pt       8.42164141       4.86223712      19.95723445        4       0.00000000       0.00007498       0.00123803      -0.03697490
Pt       1.40360727       0.81037260      22.29206796        3       0.00000000      -0.00245529      -0.01447707      -0.00018410
Pt       4.21082131       0.81037250      22.29206795        3       0.00000000       0.00248672      -0.02149424      -0.06591410
Pt       7.01803474       0.81037257      22.29206787        3       0.00000000       0.00225151      -0.00761945      -0.00007214
Pt       2.80721448       3.24149122      22.29206776        3       0.00000000      -0.01432157      -0.00888258      -0.06566852
Pt       5.61442763       3.24149122      22.29206790        3       0.00000000       0.00698511      -0.00104522      -0.06771364
Pt       8.42164153       3.24149129      22.29206804        3       0.00000000      -0.00309300       0.07231151      -0.15779331
Pt       4.21082092       5.67260997      22.29206741        3       0.00000000      -0.00454923      -0.01038658      -0.00848941
Pt       7.01803486       5.67261038      22.29206784        3       0.00000000       0.06260236      -0.04541060      -0.14858836
Pt       9.82524821       5.67261064      22.29206811        3       0.00000000      -0.06404456      -0.04830804      -0.14762585
Pt      -0.00000055       1.62074564      24.58417373        2       0.00000000      -0.00040023      -0.22244699       0.27556893
Pt       2.80721438       1.62074544      24.58417388        2       0.00000000      -0.00333526       0.03429053      -0.01435591
Pt       5.61442780       1.62074536      24.58417376        2       0.00000000       0.01437803       0.02707021      -0.00480458
Pt       1.40360636       4.05186448      24.58417388        2       0.00000000      -0.00522069       0.03788198      -0.05254799
Pt       4.21082089       4.05186396      24.58417385        2       0.00000000       0.00358284       0.04651044      -0.01225348
Pt       7.01803505       4.05186407      24.58417401        2       0.00000000       0.01000179       0.04189032      -0.05336818
Pt       2.80721273       6.48298345      24.58417382        2       0.00000000       0.21271053       0.15587085       0.24298406
Pt       5.61442806       6.48298330      24.58417394        2       0.00000000      -0.20182082       0.16263486       0.23863077
Pt       8.42164223       6.48298339      24.58417374        2       0.00000000       0.00905800       0.03225700      -0.04950933
Pt       0.00553437       0.04931975      27.14613287        1       0.00000000       0.00923599      -0.03695561      -0.00368805
Pt       2.81106896       0.04092863      26.89906319        1       0.00000000       0.02816761      -0.01735624      -0.00205926
Pt       5.62517587       0.03719059      26.90070634        1       0.00000000      -0.02825464       0.00425083       0.00089970
Pt       1.40413623       2.47372784      26.89735160        1       0.00000000       0.01691102      -0.01300238       0.00913944
Pt       4.22001796       2.47552193      26.90740274        1       0.00000000      -0.01286278      -0.02494293      -0.00833367
Pt       7.03025101       2.47793978      26.90057534        1       0.00000000      -0.02261288      -0.02293834      -0.01105282
Pt       2.80728411       4.90746804      26.90157137        1       0.00000000       0.01053758      -0.03093246      -0.02244841
Pt       5.62235895       4.90980808      26.89750126        1       0.00000000      -0.01110519      -0.02714484       0.00069627
Pt       8.42689546       4.91063019      26.91015004        1       0.00000000      -0.00067092      -0.03653178       0.01492627
C        0.01586529       0.01934311      29.22867306        0       1.00000000      -0.03632775      -0.00814604       0.00533832
H       -0.51035852       0.91256570      29.59721262        0       0.00000000      -0.01326579      -0.00611137      -0.03287442
H        1.05939575       0.01675218      29.57250399        0       0.00000000       0.04637216       0.00091011      -0.00593109
H       -0.49919137      -0.89908520      29.54608066        0       0.00000000      -0.01032065       0.00964425       0.03697994
