40
Lattice="8.421641763931781 0.0 0.0 4.2108208819658905 7.293355709136913 0.0 0.0 0.0 46.87624170604845" Properties=species:S:1:pos:R:3:tags:I:1:initial_magmoms:R:1:forces:R:3 charge=0 spin=0 energy=-206.89431120700561 free_energy=-206.89431120700561 stress="0.010363955982029438 -9.261842933483422e-06 -7.721641850366723e-06 -9.261842933483422e-06 0.010265431366860867 1.4174823263601866e-05 -7.721641850366723e-06 1.4174823263601866e-05 -0.0004109138681087643" pbc="T T T"
Pt      -0.00000012      -0.00000004      19.95723457        4       0.00000000       0.00009466      -0.00161679       0.01313427
Pt       2.80721395      -0.00000016      19.95723462        4       0.00000000      -0.00133480      -0.00667559       0.01696162
Pt       5.61442787      -0.00000009      19.95723469        4       0.00000000       0.00217902      -0.00478103       0.01926125
Pt       1.40360721       2.43111844      19.95723450        4       0.00000000      -0.00380530      -0.00139819       0.01933794
Pt       4.21082082       2.43111841      19.95723461        4       0.00000000       0.00023308      -0.00147381       0.02518452
Pt       7.01803480       2.43111847      19.95723446        4       0.00000000       0.00554870      -0.00071439       0.01723356
Pt       2.80721415       4.86223736      19.95723430        4       0.00000000      -0.00333155       0.00255106       0.01756200
Pt       5.61442796       4.86223738      19.95723451        4       0.00000000       0.00225294       0.00160460       0.01940359
Pt       8.42164141       4.86223712      19.95723445        4       0.00000000      -0.00008910       0.00025242      -0.03693870
Pt       1.40360727       0.81037260      22.29206796        3       0.00000000      -0.00067484      -0.01030102      -0.00490679
Pt       4.21082131       0.81037250      22.29206795        3       0.00000000       0.00380082      -0.01633996      -0.06728672
Pt       7.01803474       0.81037257      22.29206787        3       0.00000000       0.00473339      -0.00349745      -0.00192161
Pt       2.80721448       3.24149122      22.29206776        3       0.00000000      -0.01207901      -0.00421625      -0.06545629
Pt       5.61442763       3.24149122      22.29206790        3       0.00000000       0.00830549       0.00321043      -0.06690326
Pt       8.42164153       3.24149129      22.29206804        3       0.00000000      -0.00160219       0.07221019      -0.15141973
Pt       4.21082092       5.67260997      22.29206741        3       0.00000000      -0.00249330      -0.00441137      -0.00638292
Pt       7.01803486       5.67261038      22.29206784        3       0.00000000       0.06453928      -0.04071203      -0.14834148
Pt       9.82524821       5.67261064      22.29206811        3       0.00000000      -0.06454615      -0.04417286      -0.14668009
Pt      -0.00000055       1.62074564      24.58417373        2       0.00000000      -0.00766748      -0.22906917       0.26165700
Pt       2.80721438       1.62074544      24.58417388        2       0.00000000      -0.00707649       0.02208053      -0.02661838
Pt       5.61442780       1.62074536      24.58417376        2       0.00000000       0.00743460       0.01293903      -0.01538229
Pt       1.40360636       4.05186448      24.58417388        2       0.00000000      -0.01586772       0.02482588      -0.06180701
Pt       4.21082089       4.05186396      24.58417385        2       0.00000000      -0.00225792       0.03095166      -0.02654327
Pt       7.01803505       4.05186407      24.58417401        2       0.00000000       0.01263263       0.02736924      -0.05838026
Pt       2.80721273       6.48298345      24.58417382        2       0.00000000       0.20057374       0.13594036       0.24161163
Pt       5.61442806       6.48298330      24.58417394        2       0.00000000      -0.20583251       0.14229329       0.23476072
Pt       8.42164223       6.48298339      24.58417374        2       0.00000000       0.01145081      -0.00053171      -0.05731266
Pt      -0.00536944       0.01762022      27.13492038        1       0.00000000       0.00832878      -0.00071056       0.00676620
Pt       2.81235763       0.02175168      26.89162016        1       0.00000000      -0.01661156      -0.01615317       0.01679444
Pt       5.61283450       0.02346995      26.89851320        1       0.00000000       0.00212722      -0.01690569       0.00465944
Pt       1.39917592       2.45437715      26.89445947        1       0.00000000      -0.00235283      -0.02393754       0.01218919
Pt       4.21133056       2.46259258      26.90767378        1       0.00000000      -0.00614473      -0.04050649      -0.00135763
Pt       7.01876246       2.45906980      26.89987970        1       0.00000000       0.00644812      -0.02302526      -0.01142828
Pt       2.79818597       4.88506707      26.89813341        1       0.00000000       0.00975908      -0.00140943      -0.00507309
Pt       5.61724994       4.88734244      26.89416245        1       0.00000000      -0.00411888       0.00028567       0.01538545
Pt       8.42154916       4.88390036      26.91467871        1       0.00000000      -0.00443322      -0.00098813      -0.00103327
C        0.00036054       0.01196946      29.21788187        0       1.00000000       0.04226052       0.01182954      -0.01212350
H        1.04984506      -0.00079573      29.54675257        0       0.00000000      -0.00541459       0.00720625       0.02715448
H       -0.52984659      -0.88243980      29.57317324        0       0.00000000      -0.01753295      -0.03959247      -0.01707366
H       -0.50745434       0.92437740      29.55954764        0       0.00000000      -0.00743566       0.03759041       0.02131368
