40
Lattice="8.421641763931781 0.0 0.0 4.2108208819658905 7.293355709136913 0.0 0.0 0.0 46.87624170604845" Properties=species:S:1:pos:R:3:tags:I:1:initial_magmoms:R:1:forces:R:3 charge=0 spin=0 energy=-206.89217497653686 free_energy=-206.89217497653686 stress="0.010453052818775177 -1.1178208296769299e-05 1.8514778048484004e-06 -1.1178208296769299e-05 0.010326108895242214 5.714107828680426e-05 1.8514778048484004e-06 5.714107828680426e-05 -0.00034541235072538257" pbc="T T T"
Pt      -0.00000012      -0.00000004      19.95723457        4       0.00000000       0.00232940      -0.00579693       0.01881312
Pt       2.80721395      -0.00000016      19.95723462        4       0.00000000       0.00047908      -0.00201642       0.01296758
Pt       5.61442787      -0.00000009      19.95723469        4       0.00000000      -0.00121117      -0.00734793       0.01678625
Pt       1.40360721       2.43111844      19.95723450        4       0.00000000       0.00544860      -0.00215454       0.01721730
Pt       4.21082082       2.43111841      19.95723461        4       0.00000000      -0.00335130      -0.00249474       0.01936046
Pt       7.01803480       2.43111847      19.95723446        4       0.00000000       0.00004671      -0.00254411       0.02514270
Pt       2.80721415       4.86223736      19.95723430        4       0.00000000       0.00002836       0.00072929      -0.03673118
Pt       5.61442796       4.86223738      19.95723451        4       0.00000000      -0.00262066       0.00199760       0.01763839
Pt       8.42164141       4.86223712      19.95723445        4       0.00000000       0.00240512       0.00119976       0.01934492
Pt       1.40360727       0.81037260      22.29206796        3       0.00000000       0.00364458      -0.00740445      -0.00004357
Pt       4.21082131       0.81037250      22.29206795        3       0.00000000      -0.00069265      -0.01127152      -0.00126011
Pt       7.01803474       0.81037257      22.29206787        3       0.00000000       0.00489692      -0.01998976      -0.06639095
Pt       2.80721448       3.24149122      22.29206776        3       0.00000000      -0.00163985       0.07226961      -0.15693504
Pt       5.61442763       3.24149122      22.29206790        3       0.00000000      -0.01236239      -0.00732271      -0.06580872
Pt       8.42164153       3.24149129      22.29206804        3       0.00000000       0.00796782       0.00000614      -0.06750872
Pt       4.21082092       5.67260997      22.29206741        3       0.00000000      -0.06338834      -0.04780050      -0.14903855
Pt       7.01803486       5.67261038      22.29206784        3       0.00000000      -0.00178895      -0.00843689      -0.00807178
Pt       9.82524821       5.67261064      22.29206811        3       0.00000000       0.06459398      -0.04417958      -0.14785740
Pt      -0.00000055       1.62074564      24.58417373        2       0.00000000       0.00875446       0.03005084      -0.01649236
Pt       2.80721438       1.62074544      24.58417388        2       0.00000000      -0.00288950      -0.22307758       0.27409557
Pt       5.61442780       1.62074536      24.58417376        2       0.00000000      -0.01369234       0.02247260      -0.00494381
Pt       1.40360636       4.05186448      24.58417388        2       0.00000000       0.00647663       0.04012626      -0.04087065
Pt       4.21082089       4.05186396      24.58417385        2       0.00000000      -0.01013176       0.03245426      -0.04772103
Pt       7.01803505       4.05186407      24.58417401        2       0.00000000      -0.00126234       0.03697285      -0.01677361
Pt       2.80721273       6.48298345      24.58417382        2       0.00000000      -0.00467837       0.02445427      -0.04649256
Pt       5.61442806       6.48298330      24.58417394        2       0.00000000       0.20730244       0.14935245       0.23868699
Pt       8.42164223       6.48298339      24.58417374        2       0.00000000      -0.20289478       0.15516457       0.24836709
Pt       0.00090518       0.03617974      26.89842279        1       0.00000000      -0.03434975      -0.01706624      -0.00141403
Pt       2.79882098       0.03822609      27.14411008        1       0.00000000       0.03828215      -0.00980827      -0.02008251
Pt       5.60858498       0.03275647      26.90157609        1       0.00000000       0.01271794      -0.01266829      -0.00562407
Pt       1.40793290       2.47069546      26.89872260        1       0.00000000      -0.01033265      -0.01039957       0.00043363
Pt       4.20359011       2.47016131      26.90103127        1       0.00000000       0.01772418      -0.02006757      -0.01687375
Pt       7.01602514       2.46635718      26.90773835        1       0.00000000      -0.00416190      -0.01262269      -0.00563663
Pt       2.81013274       4.90652537      26.91138148        1       0.00000000      -0.02564957      -0.04198544       0.00496765
Pt       5.61191190       4.90254231      26.89891983        1       0.00000000      -0.00929792      -0.02903177      -0.00172627
Pt       8.41815838       4.89983914      26.90064954        1       0.00000000       0.02596850      -0.01938748      -0.02041062
C        2.79516291       0.01951579      29.22547934        0       1.00000000       0.02065307      -0.00248802       0.02296381
H        3.32313744       0.91536043      29.58663315        0       0.00000000      -0.01422473      -0.01191683      -0.02882392
H        3.31153175      -0.89509145      29.55402210        0       0.00000000      -0.01920568       0.01563032       0.01759946
H        1.74725358       0.02148658      29.56001668        0       0.00000000       0.01010659      -0.00360122       0.01914692
