40
Lattice="8.421641763931781 0.0 0.0 4.2108208819658905 7.293355709136913 0.0 0.0 0.0 46.87624170604845" Properties=species:S:1:pos:R:3:tags:I:1:initial_magmoms:R:1:forces:R:3 charge=0 spin=0 energy=-206.89712263889038 free_energy=-206.89712263889038 stress="0.010356688871979713 -1.6500380297657102e-05 -1.2053602404193953e-05 -1.6500380297657102e-05 0.010370706208050251 1.6217263691942208e-05 -1.2053602404193953e-05 1.6217263691942208e-05 -0.0003469816001597792" pbc="T T T"
Pt      -0.00000012      -0.00000004      19.95723457        4       0.00000000       0.00237045      -0.00333859       0.01942645
Pt       2.80721395      -0.00000016      19.95723462        4       0.00000000       0.00058792       0.00024118       0.01318985
Pt       5.61442787      -0.00000009      19.95723469        4       0.00000000      -0.00131454      -0.00472278       0.01747843
Pt       1.40360721       2.43111844      19.95723450        4       0.00000000       0.00565541       0.00071255       0.01691202
Pt       4.21082082       2.43111841      19.95723461        4       0.00000000      -0.00357169       0.00023259       0.01923642
Pt       7.01803480       2.43111847      19.95723446        4       0.00000000       0.00063366       0.00017678       0.02529783
Pt       2.80721415       4.86223736      19.95723430        4       0.00000000      -0.00025805      -0.00094200      -0.03675732
Pt       5.61442796       4.86223738      19.95723451        4       0.00000000      -0.00243882       0.00413988       0.01737389
Pt       8.42164141       4.86223712      19.95723445        4       0.00000000       0.00223185       0.00343286       0.01913896
Pt       1.40360727       0.81037260      22.29206796        3       0.00000000       0.00500399       0.00151264      -0.00264600
Pt       4.21082131       0.81037250      22.29206795        3       0.00000000       0.00171736      -0.00260570      -0.00465237
Pt       7.01803474       0.81037257      22.29206787        3       0.00000000       0.00660145      -0.01104712      -0.06623890
Pt       2.80721448       3.24149122      22.29206776        3       0.00000000      -0.00018058       0.07445320      -0.14889379
Pt       5.61442763       3.24149122      22.29206790        3       0.00000000      -0.01015187       0.00219179      -0.06726070
Pt       8.42164153       3.24149129      22.29206804        3       0.00000000       0.00946543       0.00958760      -0.06750452
Pt       4.21082092       5.67260997      22.29206741        3       0.00000000      -0.06447673      -0.04023798      -0.15144390
Pt       7.01803486       5.67261038      22.29206784        3       0.00000000      -0.00078608       0.00275037      -0.00112765
Pt       9.82524821       5.67261064      22.29206811        3       0.00000000       0.06811136      -0.03621424      -0.14986739
Pt      -0.00000055       1.62074564      24.58417373        2       0.00000000      -0.00203532      -0.00376724      -0.02288147
Pt       2.80721438       1.62074544      24.58417388        2       0.00000000      -0.00937410      -0.24118195       0.24267125
Pt       5.61442780       1.62074536      24.58417376        2       0.00000000      -0.01186419      -0.00555434      -0.02631702
Pt       1.40360636       4.05186448      24.58417388        2       0.00000000       0.00260486       0.00831206      -0.05137059
Pt       4.21082089       4.05186396      24.58417385        2       0.00000000      -0.01588635       0.00645079      -0.04780596
Pt       7.01803505       4.05186407      24.58417401        2       0.00000000      -0.00744408       0.00740262      -0.00784738
Pt       2.80721273       6.48298345      24.58417382        2       0.00000000      -0.00439861      -0.01269650      -0.05063368
Pt       5.61442806       6.48298330      24.58417394        2       0.00000000       0.21201155       0.11723679       0.25477320
Pt       8.42164223       6.48298339      24.58417374        2       0.00000000      -0.21755262       0.11888345       0.25234500
Pt      -0.00454017      -0.00332045      26.89608140        1       0.00000000      -0.01615465       0.00060192       0.00393154
Pt       2.79791679      -0.00308337      27.14127957        1       0.00000000       0.01278582       0.02198798       0.00967556
Pt       5.60439649      -0.00513639      26.89635577        1       0.00000000       0.01029489      -0.00315479       0.00482354
Pt       1.39817056       2.43140218      26.89611922        1       0.00000000       0.00482652       0.00624247       0.00385786
Pt       4.20279848       2.43103047      26.89593987        1       0.00000000      -0.00370852       0.00693758      -0.00064962
Pt       7.00745589       2.42706192      26.90826241        1       0.00000000       0.01227476       0.01420706      -0.00590747
Pt       2.79779782       4.86161350      26.91287753        1       0.00000000       0.00839279      -0.00259973      -0.00114041
Pt       5.60186553       4.86639885      26.89951824        1       0.00000000       0.01280012      -0.01630423      -0.00345552
Pt       8.41704026       4.86002443      26.89909984        1       0.00000000      -0.00619411       0.00195807      -0.00377798
C        2.80143877       0.03309062      29.22440276        0       1.00000000      -0.01663419      -0.01309533       0.02172426
H        1.84970128      -0.39345771      29.57594565        0       0.00000000       0.01324148      -0.00032597      -0.01295232
H        2.90110486       1.07933772      29.55169222        0       0.00000000       0.01088310      -0.02968654      -0.00641652
H        3.65178107      -0.57129050      29.57469738        0       0.00000000      -0.00806949       0.01782279      -0.00430747
