40
Lattice="8.421641763931781 0.0 0.0 4.2108208819658905 7.293355709136913 0.0 0.0 0.0 46.87624170604845" Properties=species:S:1:pos:R:3:tags:I:1:initial_magmoms:R:1:forces:R:3 charge=0 spin=0 energy=-206.8976185495349 free_energy=-206.8976185495349 stress="0.010385030880570412 -3.921109509974485e-06 1.7547735069456394e-06 -3.921109509974485e-06 0.010358591563999653 1.1868899491673801e-05 1.7547735069456394e-06 1.1868899491673801e-05 -0.00032453396124765277" pbc="T T T"
Pt      -0.00000012      -0.00000004      19.95723457        4       0.00000000       0.00198699      -0.00379705       0.01915561
Pt       2.80721395      -0.00000016      19.95723462        4       0.00000000      -0.00005033      -0.00027203       0.01332183
Pt       5.61442787      -0.00000009      19.95723469        4       0.00000000      -0.00170682      -0.00529553       0.01720971
Pt       1.40360721       2.43111844      19.95723450        4       0.00000000       0.00521521       0.00023783       0.01718199
Pt       4.21082082       2.43111841      19.95723461        4       0.00000000      -0.00382662      -0.00055142       0.01915864
Pt       7.01803480       2.43111847      19.95723446        4       0.00000000      -0.00002348      -0.00026012       0.02533210
Pt       2.80721415       4.86223736      19.95723430        4       0.00000000       0.00029983      -0.00022602      -0.03662242
Pt       5.61442796       4.86223738      19.95723451        4       0.00000000      -0.00314565       0.00373158       0.01722832
Pt       8.42164141       4.86223712      19.95723445        4       0.00000000       0.00175179       0.00303753       0.01927450
Pt       1.40360727       0.81037260      22.29206796        3       0.00000000       0.00293284       0.00068864      -0.00249136
Pt       4.21082131       0.81037250      22.29206795        3       0.00000000      -0.00044168      -0.00469354      -0.00228564
Pt       7.01803474       0.81037257      22.29206787        3       0.00000000       0.00443900      -0.01259315      -0.06682600
Pt       2.80721448       3.24149122      22.29206776        3       0.00000000      -0.00194915       0.07480095      -0.15148504
Pt       5.61442763       3.24149122      22.29206790        3       0.00000000      -0.01246186       0.00026727      -0.06740315
Pt       8.42164153       3.24149129      22.29206804        3       0.00000000       0.00747453       0.00830439      -0.06740060
Pt       4.21082092       5.67260997      22.29206741        3       0.00000000      -0.06439880      -0.04073181      -0.14942031
Pt       7.01803486       5.67261038      22.29206784        3       0.00000000      -0.00298565       0.00054482      -0.00254119
Pt       9.82524821       5.67261064      22.29206811        3       0.00000000       0.06677214      -0.03812399      -0.15028174
Pt      -0.00000055       1.62074564      24.58417373        2       0.00000000       0.00698261      -0.00027155      -0.02759624
Pt       2.80721438       1.62074544      24.58417388        2       0.00000000      -0.00368006      -0.24318852       0.25349286
Pt       5.61442780       1.62074536      24.58417376        2       0.00000000      -0.00660096       0.00030642      -0.02350637
Pt       1.40360636       4.05186448      24.58417388        2       0.00000000       0.00844740       0.01568220      -0.04804949
Pt       4.21082089       4.05186396      24.58417385        2       0.00000000      -0.00935989       0.01260197      -0.04850429
Pt       7.01803505       4.05186407      24.58417401        2       0.00000000       0.00064618       0.01379276      -0.01154731
Pt       2.80721273       6.48298345      24.58417382        2       0.00000000       0.00161770      -0.00804824      -0.05178789
Pt       5.61442806       6.48298330      24.58417394        2       0.00000000       0.21836938       0.12137758       0.25431827
Pt       8.42164223       6.48298339      24.58417374        2       0.00000000      -0.21379678       0.12986730       0.25654644
Pt       0.00345186       0.00217816      26.89530269        1       0.00000000      -0.00812428      -0.00208114       0.00789154
Pt       2.80971781       0.00876655      27.14690214        1       0.00000000      -0.01018882      -0.00848896       0.00318089
Pt       5.61446144       0.00200413      26.89657498        1       0.00000000       0.00190015      -0.00344670       0.00772036
Pt       1.40427025       2.43976956      26.89595590        1       0.00000000       0.01187205      -0.00182231       0.00484318
Pt       4.20823554       2.43873058      26.89485472        1       0.00000000       0.00343792      -0.00040599       0.00772398
Pt       7.01928058       2.43304223      26.90684682        1       0.00000000      -0.00447172       0.01548657      -0.00148458
Pt       2.80816946       4.86954296      26.91369490        1       0.00000000      -0.00133595      -0.00792415      -0.00360039
Pt       5.61238002       4.86904716      26.90004929        1       0.00000000       0.00365192      -0.00012134      -0.00781410
Pt       8.42398291       4.87139834      26.89877606        1       0.00000000      -0.00401549      -0.00912899      -0.00378731
C        2.79865718       0.02092757      29.23069769        0       1.00000000       0.02407596      -0.04078707       0.00843999
H        1.86975693      -0.46123029      29.57034871        0       0.00000000       0.00677359       0.00838720      -0.00388860
H        2.84212250       1.06660552      29.56876374        0       0.00000000      -0.00081951       0.00242962      -0.00230500
H        3.67867786      -0.53984177      29.58258537        0       0.00000000      -0.02526342       0.02071488      -0.02139093
