40
Lattice="8.421641763931781 0.0 0.0 4.2108208819658905 7.293355709136913 0.0 0.0 0.0 46.87624170604845" Properties=species:S:1:pos:R:3:tags:I:1:initial_magmoms:R:1:forces:R:3 charge=0 spin=0 energy=-206.89714934177124 free_energy=-206.89714934177124 stress="0.010351913049817085 -1.6117341147037223e-05 -9.98357336357003e-06 -1.6117341147037223e-05 0.010368170216679573 1.6490033885929734e-05 -9.98357336357003e-06 1.6490033885929734e-05 -0.0003512004332151264" pbc="T T T"
Pt      -0.00000012      -0.00000004      19.95723457        4       0.00000000       0.00230377      -0.00334272       0.01944119
Pt       2.80721395      -0.00000016      19.95723462        4       0.00000000       0.00051148       0.00022507       0.01317927
Pt       5.61442787      -0.00000009      19.95723469        4       0.00000000      -0.00135359      -0.00474433       0.01747461
Pt       1.40360721       2.43111844      19.95723450        4       0.00000000       0.00559826       0.00070366       0.01690659
Pt       4.21082082       2.43111841      19.95723461        4       0.00000000      -0.00363950       0.00022273       0.01925141
Pt       7.01803480       2.43111847      19.95723446        4       0.00000000       0.00058042       0.00018073       0.02529626
Pt       2.80721415       4.86223736      19.95723430        4       0.00000000      -0.00034194      -0.00091070      -0.03674727
Pt       5.61442796       4.86223738      19.95723451        4       0.00000000      -0.00250255       0.00412975       0.01738876
Pt       8.42164141       4.86223712      19.95723445        4       0.00000000       0.00212208       0.00342377       0.01913913
Pt       1.40360727       0.81037260      22.29206796        3       0.00000000       0.00478186       0.00159128      -0.00261930
Pt       4.21082131       0.81037250      22.29206795        3       0.00000000       0.00150695      -0.00266526      -0.00469679
Pt       7.01803474       0.81037257      22.29206787        3       0.00000000       0.00634337      -0.01101711      -0.06622066
Pt       2.80721448       3.24149122      22.29206776        3       0.00000000      -0.00043471       0.07450821      -0.14893581
Pt       5.61442763       3.24149122      22.29206790        3       0.00000000      -0.01035172       0.00217471      -0.06718311
Pt       8.42164153       3.24149129      22.29206804        3       0.00000000       0.00924443       0.00965148      -0.06771059
Pt       4.21082092       5.67260997      22.29206741        3       0.00000000      -0.06477293      -0.04027751      -0.15136494
Pt       7.01803486       5.67261038      22.29206784        3       0.00000000      -0.00095982       0.00274924      -0.00114558
Pt       9.82524821       5.67261064      22.29206811        3       0.00000000       0.06779284      -0.03620446      -0.15004483
Pt      -0.00000055       1.62074564      24.58417373        2       0.00000000      -0.00146294      -0.00489069      -0.02174654
Pt       2.80721438       1.62074544      24.58417388        2       0.00000000      -0.00896560      -0.24124743       0.24235357
Pt       5.61442780       1.62074536      24.58417376        2       0.00000000      -0.01072345      -0.00560764      -0.02652888
Pt       1.40360636       4.05186448      24.58417388        2       0.00000000       0.00359479       0.00859369      -0.05116102
Pt       4.21082089       4.05186396      24.58417385        2       0.00000000      -0.01522135       0.00711681      -0.04799297
Pt       7.01803505       4.05186407      24.58417401        2       0.00000000      -0.00689587       0.00749490      -0.00770621
Pt       2.80721273       6.48298345      24.58417382        2       0.00000000      -0.00273170      -0.01232014      -0.04796121
Pt       5.61442806       6.48298330      24.58417394        2       0.00000000       0.21180212       0.11705752       0.25540316
Pt       8.42164223       6.48298339      24.58417374        2       0.00000000      -0.21656869       0.11897036       0.25228816
Pt      -0.00295558      -0.00353573      26.89710723        1       0.00000000      -0.02053419       0.00074511       0.00021773
Pt       2.79810509      -0.00285771      27.14119314        1       0.00000000       0.01655377       0.01974457       0.00325857
Pt       5.60518003      -0.00477825      26.89636124        1       0.00000000       0.01144530      -0.00486537       0.00376710
Pt       1.39891091       2.43153921      26.89612594        1       0.00000000       0.00472533       0.00609160       0.00406897
Pt       4.20366856       2.43105975      26.89563459        1       0.00000000      -0.00371007       0.00666194       0.00029714
Pt       7.00873776       2.42705829      26.90826229        1       0.00000000       0.01076912       0.01342544      -0.00597753
Pt       2.79884403       4.86133188      26.91317780        1       0.00000000       0.00727280      -0.00028727      -0.00237408
Pt       5.60279282       4.86608161      26.89972685        1       0.00000000       0.01223443      -0.01530546      -0.00384738
Pt       8.41790374       4.86020910      26.89900936        1       0.00000000      -0.00608602       0.00221493      -0.00389172
C        2.80446593       0.03280617      29.22370451        0       1.00000000      -0.01170279      -0.00392927       0.02063506
H        3.65510109      -0.57127585      29.57299335        0       0.00000000      -0.00246039       0.01306480      -0.00144302
H        1.85352459      -0.39299058      29.57679622        0       0.00000000       0.00009363      -0.00787922      -0.00925076
H        2.90464110       1.07905561      29.55038337        0       0.00000000       0.01214298      -0.02524768      -0.00381657
