40
Lattice="8.421641763931781 0.0 0.0 4.2108208819658905 7.293355709136913 0.0 0.0 0.0 46.87624170604845" Properties=species:S:1:pos:R:3:tags:I:1:initial_magmoms:R:1:forces:R:3 charge=0 spin=0 energy=-206.15261198825561 free_energy=-206.15261198825561 stress="0.010550778359174728 1.4750334230484441e-05 3.748896415345371e-05 1.4750334230484441e-05 0.009660640731453896 0.00012730699381791055 3.748896415345371e-05 0.00012730699381791055 -0.0002938742109108716" pbc="T T T"
Pt      -0.00000012      -0.00000004      19.95723457        4       0.00000000       0.00039953      -0.00102745       0.01651611
Pt       2.80721395      -0.00000016      19.95723462        4       0.00000000       0.00024191      -0.00261560       0.01566876
Pt       5.61442787      -0.00000009      19.95723469        4       0.00000000       0.00053446      -0.00916630       0.02574668
Pt       1.40360721       2.43111844      19.95723450        4       0.00000000      -0.00096583       0.00112915       0.02273700
Pt       4.21082082       2.43111841      19.95723461        4       0.00000000      -0.00020841      -0.00000894       0.02358622
Pt       7.01803480       2.43111847      19.95723446        4       0.00000000       0.00107101       0.00133915       0.01984541
Pt       2.80721415       4.86223736      19.95723430        4       0.00000000       0.01391681       0.00150968      -0.00008229
Pt       5.61442796       4.86223738      19.95723451        4       0.00000000      -0.00084173       0.00322467       0.01316529
Pt       8.42164141       4.86223712      19.95723445        4       0.00000000      -0.01546830       0.00313566      -0.00330092
Pt       1.40360727       0.81037260      22.29206796        3       0.00000000       0.00233586       0.01566780      -0.03131475
Pt       4.21082131       0.81037250      22.29206795        3       0.00000000      -0.00074223      -0.00938850      -0.03775069
Pt       7.01803474       0.81037257      22.29206787        3       0.00000000       0.00422914      -0.00171696      -0.03173291
Pt       2.80721448       3.24149122      22.29206776        3       0.00000000      -0.00516641       0.03949628      -0.09147204
Pt       5.61442763       3.24149122      22.29206790        3       0.00000000      -0.00041454       0.00343130      -0.07177372
Pt       8.42164153       3.24149129      22.29206804        3       0.00000000       0.00216247       0.04436210      -0.09633465
Pt       4.21082092       5.67260997      22.29206741        3       0.00000000      -0.02131311      -0.01249980      -0.06337792
Pt       7.01803486       5.67261038      22.29206784        3       0.00000000       0.02010606      -0.00905948      -0.06960808
Pt       9.82524821       5.67261064      22.29206811        3       0.00000000      -0.00379621      -0.04312508      -0.10587596
Pt      -0.00000055       1.62074564      24.58417373        2       0.00000000      -0.04146217      -0.14613070       0.08341698
Pt       2.80721438       1.62074544      24.58417388        2       0.00000000       0.04028870      -0.13089924       0.05962776
Pt       5.61442780       1.62074536      24.58417376        2       0.00000000      -0.00332259       0.00033879      -0.04681386
Pt       1.40360636       4.05186448      24.58417388        2       0.00000000      -0.00107302       0.08973334      -0.20267192
Pt       4.21082089       4.05186396      24.58417385        2       0.00000000      -0.06025786      -0.01883999      -0.09271726
Pt       7.01803505       4.05186407      24.58417401        2       0.00000000       0.06611039      -0.01342310      -0.09336102
Pt       2.80721273       6.48298345      24.58417382        2       0.00000000       0.20065865       0.12549156       0.31917706
Pt       5.61442806       6.48298330      24.58417394        2       0.00000000       0.00042256       0.07405135       0.09509829
Pt       8.42164223       6.48298339      24.58417374        2       0.00000000      -0.19092421       0.13242920       0.30207267
Pt       0.02549419      -0.02362871      27.01329978        1       0.00000000       0.02731785      -0.01506336       0.00539996
Pt       2.79105840      -0.02275444      27.00456153        1       0.00000000      -0.00167645      -0.01629994      -0.01593081
Pt       5.61710535       0.00054012      26.90339670        1       0.00000000       0.00567732      -0.02512431       0.02556098
Pt       1.40375132       2.48318743      26.86522979        1       0.00000000       0.00020313      -0.01846874       0.01488893
Pt       4.21528158       2.41789254      26.91010811        1       0.00000000      -0.03677386       0.00476653       0.00266791
Pt       7.01528928       2.41780082      26.91018801        1       0.00000000       0.04167620       0.00189497       0.00194079
Pt       2.80204873       4.86759212      26.91675584        1       0.00000000       0.03260750      -0.02926786       0.00095364
Pt       5.61587924       4.80397712      26.87906141        1       0.00000000       0.00443867      -0.01188449       0.00483198
Pt       8.43032311       4.86810187      26.91668242        1       0.00000000      -0.03073089      -0.03064673       0.00126874
C        1.39533159      -0.04884792      28.89923296        0       1.00000000      -0.02376091       0.00503586       0.00359526
H        1.40021256      -1.06238610      29.31570183        0       0.00000000      -0.00967475       0.00154891      -0.02307222
H        0.52002319       0.53154579      29.25368332        0       0.00000000       0.00156000       0.00497833       0.03317741
H        2.28112351       0.52797378      29.23719321        0       0.00000000      -0.01738457      -0.00890782      -0.01375268
