40
Lattice="8.421641763931781 0.0 0.0 4.2108208819658905 7.293355709136913 0.0 0.0 0.0 46.87624170604845" Properties=species:S:1:pos:R:3:tags:I:1:initial_magmoms:R:1:forces:R:3 charge=0 spin=0 energy=-206.8921768838855 free_energy=-206.8921768838855 stress="0.01045272871851921 -1.1201856068510097e-05 1.6503438473591814e-06 -1.1201856068510097e-05 0.010326005518436432 5.7087185268756e-05 1.6503438473591814e-06 5.7087185268756e-05 -0.0003451165684964508" pbc="T T T"
Pt      -0.00000012      -0.00000004      19.95723457        4       0.00000000       0.00233085      -0.00579392       0.01881362
Pt       2.80721395      -0.00000016      19.95723462        4       0.00000000       0.00048304      -0.00201143       0.01296574
Pt       5.61442787      -0.00000009      19.95723469        4       0.00000000      -0.00121059      -0.00734450       0.01678265
Pt       1.40360721       2.43111844      19.95723450        4       0.00000000       0.00545022      -0.00215253       0.01721605
Pt       4.21082082       2.43111841      19.95723461        4       0.00000000      -0.00334979      -0.00249380       0.01936320
Pt       7.01803480       2.43111847      19.95723446        4       0.00000000       0.00004739      -0.00254726       0.02514175
Pt       2.80721415       4.86223736      19.95723430        4       0.00000000       0.00003240       0.00072704      -0.03673279
Pt       5.61442796       4.86223738      19.95723451        4       0.00000000      -0.00261687       0.00199999       0.01763606
Pt       8.42164141       4.86223712      19.95723445        4       0.00000000       0.00240272       0.00119883       0.01934842
Pt       1.40360727       0.81037260      22.29206796        3       0.00000000       0.00365140      -0.00739446      -0.00005046
Pt       4.21082131       0.81037250      22.29206795        3       0.00000000      -0.00068816      -0.01126409      -0.00125324
Pt       7.01803474       0.81037257      22.29206787        3       0.00000000       0.00490179      -0.01999590      -0.06637508
Pt       2.80721448       3.24149122      22.29206776        3       0.00000000      -0.00163440       0.07227515      -0.15693213
Pt       5.61442763       3.24149122      22.29206790        3       0.00000000      -0.01235756      -0.00731625      -0.06580833
Pt       8.42164153       3.24149129      22.29206804        3       0.00000000       0.00797004       0.00000625      -0.06750250
Pt       4.21082092       5.67260997      22.29206741        3       0.00000000      -0.06338055      -0.04779678      -0.14904679
Pt       7.01803486       5.67261038      22.29206784        3       0.00000000      -0.00178246      -0.00842572      -0.00806457
Pt       9.82524821       5.67261064      22.29206811        3       0.00000000       0.06460226      -0.04418413      -0.14787148
Pt      -0.00000055       1.62074564      24.58417373        2       0.00000000       0.00870954       0.03009191      -0.01656639
Pt       2.80721438       1.62074544      24.58417388        2       0.00000000      -0.00286770      -0.22309846       0.27402651
Pt       5.61442780       1.62074536      24.58417376        2       0.00000000      -0.01372709       0.02254064      -0.00507838
Pt       1.40360636       4.05186448      24.58417388        2       0.00000000       0.00642054       0.04015525      -0.04076076
Pt       4.21082089       4.05186396      24.58417385        2       0.00000000      -0.01014998       0.03238141      -0.04763528
Pt       7.01803505       4.05186407      24.58417401        2       0.00000000      -0.00120906       0.03694687      -0.01656293
Pt       2.80721273       6.48298345      24.58417382        2       0.00000000      -0.00462886       0.02450596      -0.04661110
Pt       5.61442806       6.48298330      24.58417394        2       0.00000000       0.20728043       0.14928272       0.23866796
Pt       8.42164223       6.48298339      24.58417374        2       0.00000000      -0.20299534       0.15506238       0.24840517
Pt       0.00093251       0.03622013      26.89843137        1       0.00000000      -0.03448772      -0.01731599      -0.00142218
Pt       2.79879416       0.03820679      27.14410446        1       0.00000000       0.03801967      -0.00995003      -0.01977528
Pt       5.60853300       0.03274390      26.90151516        1       0.00000000       0.01280675      -0.01275481      -0.00532725
Pt       1.40793887       2.47066465      26.89868493        1       0.00000000      -0.01044808      -0.01010031       0.00054224
Pt       4.20355269       2.47009569      26.90105790        1       0.00000000       0.01774486      -0.01970271      -0.01696738
Pt       7.01595690       2.46625728      26.90774948        1       0.00000000      -0.00392791      -0.01213044      -0.00569693
Pt       2.81014120       4.90661368      26.91135728        1       0.00000000      -0.02575046      -0.04249546       0.00503357
Pt       5.61188155       4.90249511      26.89892225        1       0.00000000      -0.00918208      -0.02899953      -0.00177784
Pt       8.41815508       4.89982550      26.90072323        1       0.00000000       0.02586091      -0.01956191      -0.02072292
C        2.79493817       0.01950837      29.22548185        0       1.00000000       0.02154852      -0.00275052       0.02321879
H        3.31125989      -0.89510856      29.55407638        0       0.00000000      -0.01911373       0.01552961       0.01741583
H        1.74708705       0.02152774      29.56014677        0       0.00000000       0.00944520      -0.00345787       0.01874692
H        3.32299522       0.91530336      29.58662417        0       0.00000000      -0.01420042      -0.01166521      -0.02878243
