40
Lattice="8.421641763931781 0.0 0.0 4.2108208819658905 7.293355709136913 0.0 0.0 0.0 46.87624170604845" Properties=species:S:1:pos:R:3:tags:I:1:initial_magmoms:R:1:forces:R:3 charge=0 spin=0 energy=-206.89400984592163 free_energy=-206.89400984592163 stress="0.010366428643465042 1.2672898037635605e-06 1.6080544810392894e-05 1.2672898037635605e-06 0.010263042524456978 2.2557815100299194e-05 1.6080544810392894e-05 2.2557815100299194e-05 -0.0004223212890792638" pbc="T T T"
Pt      -0.00000012      -0.00000004      19.95723457        4       0.00000000       0.00174698      -0.00542059       0.01914545
Pt       2.80721395      -0.00000016      19.95723462        4       0.00000000       0.00021845      -0.00169325       0.01309863
Pt       5.61442787      -0.00000009      19.95723469        4       0.00000000      -0.00173764      -0.00647898       0.01700139
Pt       1.40360721       2.43111844      19.95723450        4       0.00000000       0.00523986      -0.00091615       0.01742576
Pt       4.21082082       2.43111841      19.95723461        4       0.00000000      -0.00401916      -0.00155500       0.01907304
Pt       7.01803480       2.43111847      19.95723446        4       0.00000000      -0.00011957      -0.00157027       0.02516274
Pt       2.80721415       4.86223736      19.95723430        4       0.00000000       0.00048441       0.00026829      -0.03683726
Pt       5.61442796       4.86223738      19.95723451        4       0.00000000      -0.00324319       0.00216627       0.01752383
Pt       8.42164141       4.86223712      19.95723445        4       0.00000000       0.00249093       0.00184298       0.01936369
Pt       1.40360727       0.81037260      22.29206796        3       0.00000000       0.00275920      -0.00560475      -0.00436573
Pt       4.21082131       0.81037250      22.29206795        3       0.00000000      -0.00247935      -0.00894520      -0.00156888
Pt       7.01803474       0.81037257      22.29206787        3       0.00000000       0.00411321      -0.01659924      -0.06753231
Pt       2.80721448       3.24149122      22.29206776        3       0.00000000      -0.00227141       0.07265642      -0.15183295
Pt       5.61442763       3.24149122      22.29206790        3       0.00000000      -0.01276477      -0.00485484      -0.06720452
Pt       8.42164153       3.24149129      22.29206804        3       0.00000000       0.00703376       0.00247223      -0.06583908
Pt       4.21082092       5.67260997      22.29206741        3       0.00000000      -0.06325667      -0.04423152      -0.14769392
Pt       7.01803486       5.67261038      22.29206784        3       0.00000000      -0.00316227      -0.00535029      -0.00677635
Pt       9.82524821       5.67261064      22.29206811        3       0.00000000       0.06565263      -0.04156833      -0.14683011
Pt      -0.00000055       1.62074564      24.58417373        2       0.00000000       0.00715139       0.02439011      -0.02817917
Pt       2.80721438       1.62074544      24.58417388        2       0.00000000       0.00229904      -0.22676112       0.26188648
Pt       5.61442780       1.62074536      24.58417376        2       0.00000000      -0.00753308       0.01348759      -0.01438136
Pt       1.40360636       4.05186448      24.58417388        2       0.00000000       0.01464466       0.02916589      -0.06036602
Pt       4.21082089       4.05186396      24.58417385        2       0.00000000      -0.01429022       0.02536824      -0.05909838
Pt       7.01803505       4.05186407      24.58417401        2       0.00000000       0.00261690       0.03197595      -0.02828144
Pt       2.80721273       6.48298345      24.58417382        2       0.00000000      -0.00644466       0.00116622      -0.05887900
Pt       5.61442806       6.48298330      24.58417394        2       0.00000000       0.21119745       0.13906054       0.23335165
Pt       8.42164223       6.48298339      24.58417374        2       0.00000000      -0.19641252       0.14455801       0.24016473
Pt      -0.00386939       0.02529411      26.89079949        1       0.00000000       0.01589713      -0.01671849       0.02014631
Pt       2.81455496       0.02233817      27.13464569        1       0.00000000      -0.00832911      -0.00726521       0.00026140
Pt       5.61776928       0.02317833      26.89945068        1       0.00000000      -0.00409631      -0.01208112       0.00270928
Pt       1.40975134       2.45653843      26.89515449        1       0.00000000       0.00332389      -0.01923229       0.00961136
Pt       4.21255912       2.46078447      26.89953615        1       0.00000000      -0.00611047      -0.02408935      -0.01080502
Pt       7.01849772       2.46418122      26.90811421        1       0.00000000       0.00567068      -0.03916987      -0.00108153
Pt       2.80868920       4.88659463      26.91411793        1       0.00000000       0.00241400      -0.00549930      -0.00029525
Pt       5.61173875       4.89043937      26.89443968        1       0.00000000       0.00475740      -0.00153240       0.01500153
Pt       8.42961386       4.88674440      26.89668109        1       0.00000000      -0.00807069      -0.00348996      -0.00116337
C        2.80907941       0.01605990      29.21685605        0       1.00000000      -0.04182227       0.00931707       0.00328226
H        3.34256938      -0.87739845      29.57039811        0       0.00000000       0.01524143      -0.03102022      -0.01513851
H        1.75917166      -0.00198076      29.54414929        0       0.00000000       0.00470891       0.00422020       0.03044650
H        3.31175940       0.92996628      29.56316583        0       0.00000000       0.00650120       0.02953170       0.00949438
