40
Lattice="8.421641763931781 0.0 0.0 4.2108208819658905 7.293355709136913 0.0 0.0 0.0 46.87624170604845" Properties=species:S:1:pos:R:3:tags:I:1:initial_magmoms:R:1:forces:R:3 charge=0 spin=0 energy=-206.89431120700561 free_energy=-206.89431120700561 stress="0.010363951325416565 -9.271907401853241e-06 -7.708089469815604e-06 -9.271907401853241e-06 0.010265414603054523 1.4181275219016243e-05 -7.708089469815604e-06 1.4181275219016243e-05 -0.0004109054571017623" pbc="T T T"
Pt      -0.00000012      -0.00000004      19.95723457        4       0.00000000       0.00009480      -0.00161646       0.01313451
Pt       2.80721395      -0.00000016      19.95723462        4       0.00000000      -0.00133439      -0.00667589       0.01696200
Pt       5.61442787      -0.00000009      19.95723469        4       0.00000000       0.00217913      -0.00478098       0.01926110
Pt       1.40360721       2.43111844      19.95723450        4       0.00000000      -0.00380525      -0.00139799       0.01933811
Pt       4.21082082       2.43111841      19.95723461        4       0.00000000       0.00023302      -0.00147372       0.02518449
Pt       7.01803480       2.43111847      19.95723446        4       0.00000000       0.00554910      -0.00071441       0.01723348
Pt       2.80721415       4.86223736      19.95723430        4       0.00000000      -0.00333127       0.00255103       0.01756238
Pt       5.61442796       4.86223738      19.95723451        4       0.00000000       0.00225315       0.00160489       0.01940359
Pt       8.42164141       4.86223712      19.95723445        4       0.00000000      -0.00008974       0.00025284      -0.03693845
Pt       1.40360727       0.81037260      22.29206796        3       0.00000000      -0.00067427      -0.01030016      -0.00490806
Pt       4.21082131       0.81037250      22.29206795        3       0.00000000       0.00380194      -0.01633944      -0.06728748
Pt       7.01803474       0.81037257      22.29206787        3       0.00000000       0.00473462      -0.00349773      -0.00192067
Pt       2.80721448       3.24149122      22.29206776        3       0.00000000      -0.01207816      -0.00421539      -0.06545623
Pt       5.61442763       3.24149122      22.29206790        3       0.00000000       0.00830589       0.00321079      -0.06690414
Pt       8.42164153       3.24149129      22.29206804        3       0.00000000      -0.00160206       0.07221047      -0.15141813
Pt       4.21082092       5.67260997      22.29206741        3       0.00000000      -0.00249267      -0.00441116      -0.00638433
Pt       7.01803486       5.67261038      22.29206784        3       0.00000000       0.06453913      -0.04071108      -0.14833908
Pt       9.82524821       5.67261064      22.29206811        3       0.00000000      -0.06454536      -0.04417297      -0.14668147
Pt      -0.00000055       1.62074564      24.58417373        2       0.00000000      -0.00766986      -0.22907206       0.26165140
Pt       2.80721438       1.62074544      24.58417388        2       0.00000000      -0.00707883       0.02207026      -0.02660718
Pt       5.61442780       1.62074536      24.58417376        2       0.00000000       0.00743120       0.01293499      -0.01538844
Pt       1.40360636       4.05186448      24.58417388        2       0.00000000      -0.01586898       0.02482769      -0.06181625
Pt       4.21082089       4.05186396      24.58417385        2       0.00000000      -0.00226454       0.03095125      -0.02654098
Pt       7.01803505       4.05186407      24.58417401        2       0.00000000       0.01263451       0.02737089      -0.05839072
Pt       2.80721273       6.48298345      24.58417382        2       0.00000000       0.20057404       0.13594170       0.24161893
Pt       5.61442806       6.48298330      24.58417394        2       0.00000000      -0.20582408       0.14229254       0.23477323
Pt       8.42164223       6.48298339      24.58417374        2       0.00000000       0.01143951      -0.00052901      -0.05729751
Pt      -0.00537053       0.01762164      27.13491941        1       0.00000000       0.00834149      -0.00072176       0.00675699
Pt       2.81235479       0.02175275      26.89163097        1       0.00000000      -0.01661085      -0.01616491       0.01675111
Pt       5.61283110       0.02347016      26.89851334        1       0.00000000       0.00213021      -0.01691302       0.00466063
Pt       1.39917148       2.45437965      26.89445678        1       0.00000000      -0.00233815      -0.02395517       0.01219797
Pt       4.21132885       2.46259007      26.90767334        1       0.00000000      -0.00615825      -0.04050096      -0.00135604
Pt       7.01875845       2.45906925      26.89987838        1       0.00000000       0.00645798      -0.02303585      -0.01141546
Pt       2.79818026       4.88506755      26.89813388        1       0.00000000       0.00977958      -0.00140680      -0.00507386
Pt       5.61724944       4.88733446      26.89416115        1       0.00000000      -0.00413084       0.00032882       0.01538972
Pt       8.42154733       4.88389678      26.91467945        1       0.00000000      -0.00443899      -0.00096652      -0.00103064
C        0.00037611       0.01197165      29.21788152        0       1.00000000       0.04225021       0.01180912      -0.01216436
H       -0.52983065      -0.88243687      29.57316946        0       0.00000000      -0.01755878      -0.03963869      -0.01703995
H       -0.50743834       0.92437621      29.55955098        0       0.00000000      -0.00743478       0.03764319       0.02132104
H        1.04986167      -0.00079700      29.54674953        0       0.00000000      -0.00539914       0.00721209       0.02715866
