40
Lattice="8.421641763931781 0.0 0.0 4.2108208819658905 7.293355709136913 0.0 0.0 0.0 46.87624170604845" Properties=species:S:1:pos:R:3:tags:I:1:initial_magmoms:R:1:forces:R:3 charge=0 spin=0 energy=-206.89529730624878 free_energy=-206.89529730624878 stress="0.010379762388765812 -1.1445959898992442e-05 -3.1497377221967326e-06 -1.1445959898992442e-05 0.010334168560802937 2.793927887978498e-05 -3.1497377221967326e-06 2.793927887978498e-05 -0.00035273804678581655" pbc="T T T"
Pt      -0.00000012      -0.00000004      19.95723457        4       0.00000000       0.00275287      -0.00397004       0.01925966
Pt       2.80721395      -0.00000016      19.95723462        4       0.00000000       0.00051107      -0.00070476       0.01328022
Pt       5.61442787      -0.00000009      19.95723469        4       0.00000000      -0.00124946      -0.00551932       0.01720807
Pt       1.40360721       2.43111844      19.95723450        4       0.00000000       0.00562007       0.00030297       0.01713254
Pt       4.21082082       2.43111841      19.95723461        4       0.00000000      -0.00338210      -0.00048029       0.01926867
Pt       7.01803480       2.43111847      19.95723446        4       0.00000000       0.00031142      -0.00045350       0.02519961
Pt       2.80721415       4.86223736      19.95723430        4       0.00000000       0.00003860      -0.00002174      -0.03673349
Pt       5.61442796       4.86223738      19.95723451        4       0.00000000      -0.00290808       0.00365786       0.01733547
Pt       8.42164141       4.86223712      19.95723445        4       0.00000000       0.00275073       0.00274228       0.01933358
Pt       1.40360727       0.81037260      22.29206796        3       0.00000000       0.00512366      -0.00113337      -0.00233193
Pt       4.21082131       0.81037250      22.29206795        3       0.00000000       0.00143693      -0.00538789      -0.00453978
Pt       7.01803474       0.81037257      22.29206787        3       0.00000000       0.00625763      -0.01336374      -0.06790321
Pt       2.80721448       3.24149122      22.29206776        3       0.00000000      -0.00045159       0.07473449      -0.15162507
Pt       5.61442763       3.24149122      22.29206790        3       0.00000000      -0.01091365      -0.00086324      -0.06562806
Pt       8.42164153       3.24149129      22.29206804        3       0.00000000       0.00914599       0.00706529      -0.06571931
Pt       4.21082092       5.67260997      22.29206741        3       0.00000000      -0.06363995      -0.04132988      -0.14978017
Pt       7.01803486       5.67261038      22.29206784        3       0.00000000      -0.00086726      -0.00039567      -0.00387528
Pt       9.82524821       5.67261064      22.29206811        3       0.00000000       0.06750109      -0.03802824      -0.14902516
Pt      -0.00000055       1.62074564      24.58417373        2       0.00000000       0.00413312       0.00341824      -0.01770947
Pt       2.80721438       1.62074544      24.58417388        2       0.00000000      -0.01195589      -0.23911609       0.25808463
Pt       5.61442780       1.62074536      24.58417376        2       0.00000000      -0.01683678       0.00462935      -0.01724835
Pt       1.40360636       4.05186448      24.58417388        2       0.00000000       0.00304705       0.01452643      -0.05630781
Pt       4.21082089       4.05186396      24.58417385        2       0.00000000      -0.01309705       0.00972876      -0.05946648
Pt       7.01803505       4.05186407      24.58417401        2       0.00000000      -0.00394242       0.01850948      -0.02931374
Pt       2.80721273       6.48298345      24.58417382        2       0.00000000      -0.00152430      -0.00645737      -0.06245689
Pt       5.61442806       6.48298330      24.58417394        2       0.00000000       0.21060388       0.12824900       0.26148909
Pt       8.42164223       6.48298339      24.58417374        2       0.00000000      -0.21686488       0.13218586       0.25081187
Pt      -0.00890193       0.00728137      26.89710033        1       0.00000000       0.01501382      -0.00600893      -0.00504359
Pt       2.80136687       0.01235142      27.14498067        1       0.00000000       0.00368280      -0.00065503      -0.00279219
Pt       5.61139540       0.00460220      26.89349402        1       0.00000000      -0.01977994      -0.00066697       0.02022834
Pt       1.39630235       2.44494964      26.89830890        1       0.00000000       0.01486533      -0.02321667       0.00379937
Pt       4.19706951       2.44252460      26.89901333        1       0.00000000       0.01816214      -0.01429255      -0.00958619
Pt       7.00891886       2.44473054      26.90673866        1       0.00000000       0.00783070      -0.02494601       0.00195055
Pt       2.80371927       4.86942570      26.90856993        1       0.00000000      -0.00799445       0.00752315       0.01598914
Pt       5.60761058       4.86909120      26.89647939        1       0.00000000      -0.00548550       0.02946480       0.00901688
Pt       8.41669440       4.87181465      26.89791233        1       0.00000000       0.00785143       0.00867472      -0.00317586
C        2.79669912       0.01808979      29.22823021        0       1.00000000      -0.02842175      -0.01587332       0.02036534
H        1.74787481       0.02254222      29.56290639        0       0.00000000       0.02983085      -0.00018559       0.00188458
H        3.32237824       0.91704573      29.58351717        0       0.00000000      -0.00452348       0.00199801      -0.03476405
H        3.31123169      -0.89195056      29.57039178        0       0.00000000      -0.00263277      -0.00434059       0.00338831
