40
Lattice="8.421641763931781 0.0 0.0 4.2108208819658905 7.293355709136913 0.0 0.0 0.0 46.87624170604845" Properties=species:S:1:pos:R:3:tags:I:1:initial_magmoms:R:1:forces:R:3 charge=0 spin=0 energy=-206.89476134128296 free_energy=-206.89476134128296 stress="0.010365243069827557 -2.7683829557645367e-06 -1.5350069588748738e-06 -2.7683829557645367e-06 0.010314586572349072 -8.03858767994825e-07 -1.5350069588748738e-06 -8.03858767994825e-07 -0.00033766429987736046" pbc="T T T"
Pt      -0.00000012      -0.00000004      19.95723457        4       0.00000000       0.00169961      -0.00460332       0.01938269
Pt       2.80721395      -0.00000016      19.95723462        4       0.00000000       0.00039109      -0.00068385       0.01322138
Pt       5.61442787      -0.00000009      19.95723469        4       0.00000000      -0.00169042      -0.00600666       0.01715890
Pt       1.40360721       2.43111844      19.95723450        4       0.00000000       0.00529320       0.00002001       0.01735500
Pt       4.21082082       2.43111841      19.95723461        4       0.00000000      -0.00413690      -0.00093534       0.01906801
Pt       7.01803480       2.43111847      19.95723446        4       0.00000000       0.00042746      -0.00109046       0.02516007
Pt       2.80721415       4.86223736      19.95723430        4       0.00000000       0.00024644      -0.00036371      -0.03666981
Pt       5.61442796       4.86223738      19.95723451        4       0.00000000      -0.00331627       0.00293856       0.01753246
Pt       8.42164141       4.86223712      19.95723445        4       0.00000000       0.00194547       0.00243439       0.01934127
Pt       1.40360727       0.81037260      22.29206796        3       0.00000000       0.00313671      -0.00176247      -0.00479339
Pt       4.21082131       0.81037250      22.29206795        3       0.00000000      -0.00139597      -0.00683389      -0.00228257
Pt       7.01803474       0.81037257      22.29206787        3       0.00000000       0.00456387      -0.01396924      -0.06585970
Pt       2.80721448       3.24149122      22.29206776        3       0.00000000      -0.00194202       0.07255761      -0.14983246
Pt       5.61442763       3.24149122      22.29206790        3       0.00000000      -0.01186773      -0.00199841      -0.06793836
Pt       8.42164153       3.24149129      22.29206804        3       0.00000000       0.00719454       0.00582380      -0.06750476
Pt       4.21082092       5.67260997      22.29206741        3       0.00000000      -0.06464531      -0.04294982      -0.14754015
Pt       7.01803486       5.67261038      22.29206784        3       0.00000000      -0.00241920      -0.00211035      -0.00548499
Pt       9.82524821       5.67261064      22.29206811        3       0.00000000       0.06574252      -0.03984440      -0.14944319
Pt      -0.00000055       1.62074564      24.58417373        2       0.00000000       0.00792269       0.00755670      -0.00735932
Pt       2.80721438       1.62074544      24.58417388        2       0.00000000      -0.00418967      -0.23614502       0.26449135
Pt       5.61442780       1.62074536      24.58417376        2       0.00000000      -0.00742345       0.00644023      -0.02924011
Pt       1.40360636       4.05186448      24.58417388        2       0.00000000       0.01262877       0.01721041      -0.05640147
Pt       4.21082089       4.05186396      24.58417385        2       0.00000000      -0.01555986       0.02244239      -0.05084970
Pt       7.01803505       4.05186407      24.58417401        2       0.00000000       0.00043506       0.02119260      -0.00789803
Pt       2.80721273       6.48298345      24.58417382        2       0.00000000       0.00665851      -0.00209092      -0.05000447
Pt       5.61442806       6.48298330      24.58417394        2       0.00000000       0.20543434       0.12507746       0.25116596
Pt       8.42164223       6.48298339      24.58417374        2       0.00000000      -0.20458116       0.13881004       0.24498092
Pt       0.00162059       0.01195050      26.90065423        1       0.00000000      -0.00557426      -0.00353532      -0.01640675
Pt       2.80588579       0.00171064      27.13804961        1       0.00000000       0.00257221       0.03567637       0.01937122
Pt       5.61887701       0.01558145      26.89671392        1       0.00000000      -0.02048903      -0.02065848       0.01470272
Pt       1.40713176       2.44881617      26.89730766        1       0.00000000       0.00428506      -0.02618319      -0.00165733
Pt       4.21156961       2.44788171      26.89604014        1       0.00000000      -0.02526025      -0.01692162      -0.00045882
Pt       7.01326872       2.44592039      26.90944388        1       0.00000000       0.03106873      -0.00252756      -0.00868952
Pt       2.80298246       4.88004835      26.91486443        1       0.00000000       0.02140454      -0.02164751      -0.00320056
Pt       5.60789837       4.87454848      26.90013326        1       0.00000000       0.01097149       0.00940680      -0.00480221
Pt       8.43028562       4.88066678      26.89655479        1       0.00000000      -0.02454944      -0.02751311      -0.00181309
C        2.80106308       0.00786028      29.22270204        0       1.00000000       0.02624833       0.02004990      -0.03145844
H        3.32437933       0.91569096      29.55381751        0       0.00000000       0.00612760       0.03093239       0.02588966
H        3.32427871      -0.89102471      29.57782206        0       0.00000000       0.00698453      -0.03571540      -0.01363665
H        1.75650916       0.01253906      29.56323260        0       0.00000000      -0.03434180      -0.00247961       0.01240436
