40
Lattice="8.421641763931781 0.0 0.0 4.2108208819658905 7.293355709136913 0.0 0.0 0.0 46.87624170604845" Properties=species:S:1:pos:R:3:tags:I:1:initial_magmoms:R:1:forces:R:3 charge=0 spin=0 energy=-206.89527251071655 free_energy=-206.89527251071655 stress="0.010380507446825504 9.032873094838578e-06 1.1164084753545467e-05 9.032873094838578e-06 0.010319548659026623 3.0863331630825996e-05 1.1164084753545467e-05 3.0863331630825996e-05 -0.00035790560650639236" pbc="T T T"
Pt      -0.00000012      -0.00000004      19.95723457        4       0.00000000      -0.00044816      -0.00083419       0.01334587
Pt       2.80721395      -0.00000016      19.95723462        4       0.00000000      -0.00263341      -0.00567199       0.01714590
Pt       5.61442787      -0.00000009      19.95723469        4       0.00000000       0.00143212      -0.00414562       0.01940894
Pt       1.40360721       2.43111844      19.95723450        4       0.00000000      -0.00424992      -0.00045375       0.01923894
Pt       4.21082082       2.43111841      19.95723461        4       0.00000000      -0.00043899      -0.00045321       0.02533430
Pt       7.01803480       2.43111847      19.95723446        4       0.00000000       0.00464665       0.00001314       0.01726774
Pt       2.80721415       4.86223736      19.95723430        4       0.00000000      -0.00400983       0.00337524       0.01724030
Pt       5.61442796       4.86223738      19.95723451        4       0.00000000       0.00175089       0.00278372       0.01930569
Pt       8.42164141       4.86223712      19.95723445        4       0.00000000      -0.00000260      -0.00008686      -0.03700140
Pt       1.40360727       0.81037260      22.29206796        3       0.00000000      -0.00272198      -0.00635384      -0.00275379
Pt       4.21082131       0.81037250      22.29206795        3       0.00000000       0.00197713      -0.01364349      -0.06769211
Pt       7.01803474       0.81037257      22.29206787        3       0.00000000       0.00116247      -0.00062812      -0.00465725
Pt       2.80721448       3.24149122      22.29206776        3       0.00000000      -0.01418682      -0.00042997      -0.06477278
Pt       5.61442763       3.24149122      22.29206790        3       0.00000000       0.00679850       0.00715677      -0.06521413
Pt       8.42164153       3.24149129      22.29206804        3       0.00000000      -0.00349678       0.07469259      -0.15200339
Pt       4.21082092       5.67260997      22.29206741        3       0.00000000      -0.00508559       0.00011508      -0.00416209
Pt       7.01803486       5.67261038      22.29206784        3       0.00000000       0.06457310      -0.03803971      -0.14977843
Pt       9.82524821       5.67261064      22.29206811        3       0.00000000      -0.06591193      -0.04069012      -0.14897878
Pt      -0.00000055       1.62074564      24.58417373        2       0.00000000       0.00702429      -0.23785098       0.25849760
Pt       2.80721438       1.62074544      24.58417388        2       0.00000000      -0.00425278       0.00534292      -0.01815720
Pt       5.61442780       1.62074536      24.58417376        2       0.00000000       0.01660173       0.00358615      -0.01529011
Pt       1.40360636       4.05186448      24.58417388        2       0.00000000      -0.00389697       0.00982501      -0.05831600
Pt       4.21082089       4.05186396      24.58417385        2       0.00000000       0.00563749       0.01815585      -0.03061386
Pt       7.01803505       4.05186407      24.58417401        2       0.00000000       0.01092211       0.01505311      -0.06276576
Pt       2.80721273       6.48298345      24.58417382        2       0.00000000       0.21999520       0.12780441       0.25161308
Pt       5.61442806       6.48298330      24.58417394        2       0.00000000      -0.20713514       0.13221180       0.25999776
Pt       8.42164223       6.48298339      24.58417374        2       0.00000000       0.00919205      -0.00699538      -0.06453983
Pt       0.00646990       0.01417597      27.14490284        1       0.00000000       0.00183094      -0.00246274      -0.00035097
Pt       2.81786423       0.00512486      26.89519665        1       0.00000000      -0.01869766      -0.00399744       0.00209764
Pt       5.61852242       0.00539983      26.89409650        1       0.00000000       0.02054080       0.00239640       0.01686009
Pt       1.41310045       2.44460339      26.89882840        1       0.00000000      -0.01465686      -0.02551080       0.00183628
Pt       4.22088394       2.44491794      26.90662013        1       0.00000000      -0.00832354      -0.02713202       0.00126075
Pt       7.03360158       2.44511807      26.89865288        1       0.00000000      -0.01793793      -0.02258343      -0.00671127
Pt       2.81250984       4.87278631      26.89767823        1       0.00000000      -0.01004855       0.00976422      -0.00126747
Pt       5.62038146       4.86827358      26.89651828        1       0.00000000       0.00711457       0.03343860       0.00860261
Pt       8.42679764       4.86817174      26.90838249        1       0.00000000       0.00639275       0.01408889       0.01847754
C        0.01460418       0.01895870      29.22875679        0       1.00000000       0.04201669      -0.01892776      -0.00296855
H        1.06374692       0.02347799      29.56293331        0       0.00000000      -0.03694400       0.00183992      -0.00029052
H       -0.49888818      -0.89263549      29.56623834        0       0.00000000      -0.00387161      -0.01839867       0.02023508
H       -0.51255364       0.91592709      29.58531622        0       0.00000000      -0.00065854       0.01364620      -0.02948030
