40
Lattice="8.421641763931781 0.0 0.0 4.2108208819658905 7.293355709136913 0.0 0.0 0.0 46.87624170604845" Properties=species:S:1:pos:R:3:tags:I:1:initial_magmoms:R:1:forces:R:3 charge=0 spin=0 energy=-205.99748732394897 free_energy=-205.99748732394897 stress="0.009919458068907261 3.8491722875733103e-07 6.550353077727777e-07 3.8491722875733103e-07 0.009884902276098728 1.3678125469596125e-05 6.550353077727777e-07 1.3678125469596125e-05 -0.00018792794435285032" pbc="T T T"
Pt      -0.00000012      -0.00000004      19.95723457        4       0.00000000      -0.00067547      -0.00233958       0.01796889
Pt       2.80721395      -0.00000016      19.95723462        4       0.00000000       0.00232086       0.00031204       0.01794253
Pt       5.61442787      -0.00000009      19.95723469        4       0.00000000       0.00181664       0.00626111       0.00719568
Pt       1.40360721       2.43111844      19.95723450        4       0.00000000      -0.00155452       0.00157436       0.01812001
Pt       4.21082082       2.43111841      19.95723461        4       0.00000000       0.00100516      -0.00061735       0.01742152
Pt       7.01803480       2.43111847      19.95723446        4       0.00000000       0.00006142       0.00107207       0.01734874
Pt       2.80721415       4.86223736      19.95723430        4       0.00000000       0.00548769      -0.00521617       0.00656018
Pt       5.61442796       4.86223738      19.95723451        4       0.00000000      -0.00096197      -0.00056557       0.01710383
Pt       8.42164141       4.86223712      19.95723445        4       0.00000000      -0.00733692      -0.00209696       0.00649553
Pt       1.40360727       0.81037260      22.29206796        3       0.00000000       0.00001423      -0.00010316      -0.04293126
Pt       4.21082131       0.81037250      22.29206795        3       0.00000000       0.01549175      -0.01161140      -0.07452058
Pt       7.01803474       0.81037257      22.29206787        3       0.00000000      -0.01404213      -0.00786524      -0.07327899
Pt       2.80721448       3.24149122      22.29206776        3       0.00000000       0.00073720       0.01594368      -0.07513491
Pt       5.61442763       3.24149122      22.29206790        3       0.00000000      -0.00011724      -0.00019931      -0.06921404
Pt       8.42164153       3.24149129      22.29206804        3       0.00000000       0.00146373       0.01902504      -0.07617670
Pt       4.21082092       5.67260997      22.29206741        3       0.00000000      -0.01757727      -0.00876650      -0.07479529
Pt       7.01803486       5.67261038      22.29206784        3       0.00000000       0.01381591      -0.00921790      -0.07401672
Pt       9.82524821       5.67261064      22.29206811        3       0.00000000      -0.00001437      -0.00289475      -0.04303071
Pt      -0.00000055       1.62074564      24.58417373        2       0.00000000       0.02768211      -0.02241163       0.02780473
Pt       2.80721438       1.62074544      24.58417388        2       0.00000000      -0.02977502      -0.01870869       0.02777355
Pt       5.61442780       1.62074536      24.58417376        2       0.00000000      -0.00732032      -0.02065427      -0.07354470
Pt       1.40360636       4.05186448      24.58417388        2       0.00000000      -0.00766319      -0.16096567       0.22822745
Pt       4.21082089       4.05186396      24.58417385        2       0.00000000      -0.01499403       0.01797240      -0.07357072
Pt       7.01803505       4.05186407      24.58417401        2       0.00000000       0.02213513       0.00604192      -0.07361733
Pt       2.80721273       6.48298345      24.58417382        2       0.00000000       0.15416007       0.08185023       0.24347889
Pt       5.61442806       6.48298330      24.58417394        2       0.00000000       0.00206546       0.03715786       0.03163384
Pt       8.42164223       6.48298339      24.58417374        2       0.00000000      -0.14574939       0.09530871       0.24275927
Pt      -0.03289494      -0.02326726      26.94409288        1       0.00000000       0.02045527       0.03300525      -0.01986584
Pt       2.84505712      -0.01523695      26.94392396        1       0.00000000      -0.03864337       0.00172767      -0.01843493
Pt       5.61506713       0.00052227      26.92143347        1       0.00000000      -0.00088722      -0.00827212      -0.01585123
Pt       1.39895308       2.47736988      26.93912084        1       0.00000000       0.01817704      -0.02939000      -0.02264492
Pt       4.22706869       2.44858413      26.90505271        1       0.00000000      -0.01322241      -0.02967020       0.00126452
Pt       6.99573216       2.43802239      26.90501496        1       0.00000000       0.03324983       0.00437379       0.00114048
Pt       2.80680621       4.86402065      26.92171276        1       0.00000000      -0.00755428       0.00647273      -0.01498953
Pt       5.62054581       4.84087743      26.90504087        1       0.00000000      -0.01946224       0.02702340       0.00135485
Pt       8.42166593       4.86490627      26.92172498        1       0.00000000       0.00770480       0.00604352      -0.01516639
C        1.40333926       0.80338278      28.72745789        0       1.00000000      -0.00046221      -0.00622591       0.02858048
H        1.41073055       1.84377798      29.12068941        0       0.00000000      -0.00455412      -0.03174625      -0.01607322
H        2.29796694       0.27986101      29.13026471        0       0.00000000      -0.02139594       0.01334803      -0.00740677
H        0.50028071       0.29348252      29.12914590        0       0.00000000       0.02611913       0.00502474      -0.00591025
