40
Lattice="8.421641763931781 0.0 0.0 4.2108208819658905 7.293355709136913 0.0 0.0 0.0 46.87624170604845" Properties=species:S:1:pos:R:3:tags:I:1:initial_magmoms:R:1:forces:R:3 charge=0 spin=0 energy=-206.89684607333862 free_energy=-206.89684607333862 stress="0.010386398993432522 5.855882591276895e-06 8.524245458829682e-06 5.855882591276895e-06 0.010344401001930237 2.676350050023757e-05 8.524245458829682e-06 2.676350050023757e-05 -0.00032818701583892107" pbc="T T T"
Pt      -0.00000012      -0.00000004      19.95723457        4       0.00000000      -0.00034759      -0.00065016       0.01329222
Pt       2.80721395      -0.00000016      19.95723462        4       0.00000000      -0.00229549      -0.00565264       0.01705307
Pt       5.61442787      -0.00000009      19.95723469        4       0.00000000       0.00140570      -0.00428790       0.01927662
Pt       1.40360721       2.43111844      19.95723450        4       0.00000000      -0.00418527      -0.00115552       0.01919706
Pt       4.21082082       2.43111841      19.95723461        4       0.00000000      -0.00042696      -0.00080428       0.02529467
Pt       7.01803480       2.43111847      19.95723446        4       0.00000000       0.00475612      -0.00034354       0.01720161
Pt       2.80721415       4.86223736      19.95723430        4       0.00000000      -0.00388773       0.00327954       0.01736870
Pt       5.61442796       4.86223738      19.95723451        4       0.00000000       0.00145045       0.00241662       0.01945758
Pt       8.42164141       4.86223712      19.95723445        4       0.00000000      -0.00002087      -0.00038581      -0.03668105
Pt       1.40360727       0.81037260      22.29206796        3       0.00000000      -0.00253753      -0.00680069      -0.00028723
Pt       4.21082131       0.81037250      22.29206795        3       0.00000000       0.00223872      -0.01401273      -0.06630859
Pt       7.01803474       0.81037257      22.29206787        3       0.00000000       0.00138945      -0.00102106      -0.00281572
Pt       2.80721448       3.24149122      22.29206776        3       0.00000000      -0.01427781      -0.00084449      -0.06725779
Pt       5.61442763       3.24149122      22.29206790        3       0.00000000       0.00604802       0.00683601      -0.06703135
Pt       8.42164153       3.24149129      22.29206804        3       0.00000000      -0.00364406       0.07373860      -0.15158316
Pt       4.21082092       5.67260997      22.29206741        3       0.00000000      -0.00484625      -0.00132821      -0.00546946
Pt       7.01803486       5.67261038      22.29206784        3       0.00000000       0.06462384      -0.03956702      -0.15090984
Pt       9.82524821       5.67261064      22.29206811        3       0.00000000      -0.06593969      -0.04189890      -0.14875671
Pt      -0.00000055       1.62074564      24.58417373        2       0.00000000       0.00502384      -0.23829678       0.25367758
Pt       2.80721438       1.62074544      24.58417388        2       0.00000000      -0.00269313       0.00245013      -0.02173843
Pt       5.61442780       1.62074536      24.58417376        2       0.00000000       0.01256172       0.00459085      -0.02391251
Pt       1.40360636       4.05186448      24.58417388        2       0.00000000      -0.00480080       0.01478291      -0.05234390
Pt       4.21082089       4.05186396      24.58417385        2       0.00000000       0.00887757       0.01812716      -0.01189264
Pt       7.01803505       4.05186407      24.58417401        2       0.00000000       0.01152211       0.02013390      -0.04728360
Pt       2.80721273       6.48298345      24.58417382        2       0.00000000       0.21737303       0.12898780       0.25467831
Pt       5.61442806       6.48298330      24.58417394        2       0.00000000      -0.20457721       0.13673608       0.26147601
Pt       8.42164223       6.48298339      24.58417374        2       0.00000000       0.01020864      -0.00135989      -0.05052574
Pt       0.00622502       0.01414357      27.14579118        1       0.00000000       0.00732248      -0.00542324       0.00133252
Pt       2.81861045       0.00766459      26.89940318        1       0.00000000      -0.01754249      -0.00467582      -0.00422785
Pt       5.62266001       0.01233964      26.89880216        1       0.00000000      -0.00071128      -0.01841539       0.00186299
Pt       1.41043772       2.44383368      26.89598921        1       0.00000000      -0.00662058      -0.00497209       0.00514513
Pt       4.21835328       2.44056901      26.90669577        1       0.00000000      -0.00025679       0.01297982      -0.00038041
Pt       7.02919491       2.44491810      26.89621910        1       0.00000000      -0.00442867       0.00372437      -0.00128865
Pt       2.81088021       4.87601809      26.89809532        1       0.00000000       0.00437015      -0.00191448      -0.00167179
Pt       5.62380664       4.87888693      26.89880598        1       0.00000000      -0.00624826      -0.01148842      -0.00471398
Pt       8.43082248       4.87511921      26.91198781        1       0.00000000      -0.00830891      -0.00781477       0.00247219
C        0.00791467       0.03785666      29.22974664        0       1.00000000       0.01000334       0.00232411      -0.02451808
H       -0.13361061       1.07771395      29.55910170        0       0.00000000       0.00535870      -0.00348506       0.00656544
H        0.97605987      -0.35374527      29.57473508        0       0.00000000       0.00060952      -0.00016640       0.00214024
H       -0.81788477      -0.59776987      29.57954143        0       0.00000000      -0.01654591      -0.01434267       0.00410643
