40
Lattice="8.421641763931781 0.0 0.0 4.2108208819658905 7.293355709136913 0.0 0.0 0.0 46.87624170604845" Properties=species:S:1:pos:R:3:tags:I:1:initial_magmoms:R:1:forces:R:3 charge=0 spin=0 energy=-205.99752547092163 free_energy=-205.99752547092163 stress="0.00993980374187231 2.683585307750036e-06 1.2731520655506756e-06 2.683585307750036e-06 0.009873750619590282 2.7334506739862263e-05 1.2731520655506756e-06 2.7334506739862263e-05 -0.00019462349882815033" pbc="T T T"
Pt      -0.00000012      -0.00000004      19.95723457        4       0.00000000      -0.00066309      -0.00189787       0.01795701
Pt       2.80721395      -0.00000016      19.95723462        4       0.00000000       0.00190239      -0.00013917       0.01793742
Pt       5.61442787      -0.00000009      19.95723469        4       0.00000000       0.00134860       0.00572373       0.00761573
Pt       1.40360721       2.43111844      19.95723450        4       0.00000000      -0.00103328       0.00121332       0.01817069
Pt       4.21082082       2.43111841      19.95723461        4       0.00000000       0.00081123      -0.00004350       0.01766798
Pt       7.01803480       2.43111847      19.95723446        4       0.00000000      -0.00027922       0.00054142       0.01748377
Pt       2.80721415       4.86223736      19.95723430        4       0.00000000       0.00619198      -0.00492655       0.00631540
Pt       5.61442796       4.86223738      19.95723451        4       0.00000000      -0.00026863      -0.00064029       0.01707648
Pt       8.42164141       4.86223712      19.95723445        4       0.00000000      -0.00754679      -0.00274848       0.00634790
Pt       1.40360727       0.81037260      22.29206796        3       0.00000000       0.00013820      -0.00008912      -0.04215806
Pt       4.21082131       0.81037250      22.29206795        3       0.00000000       0.01394377      -0.01241884      -0.07435858
Pt       7.01803474       0.81037257      22.29206787        3       0.00000000      -0.01470779      -0.00891656      -0.07064516
Pt       2.80721448       3.24149122      22.29206776        3       0.00000000       0.00067093       0.01706211      -0.07460912
Pt       5.61442763       3.24149122      22.29206790        3       0.00000000      -0.00018135      -0.00028832      -0.06611188
Pt       8.42164153       3.24149129      22.29206804        3       0.00000000       0.00235714       0.01788983      -0.07783886
Pt       4.21082092       5.67260997      22.29206741        3       0.00000000      -0.01742904      -0.00790023      -0.07519990
Pt       7.01803486       5.67261038      22.29206784        3       0.00000000       0.01516313      -0.01014172      -0.07215732
Pt       9.82524821       5.67261064      22.29206811        3       0.00000000      -0.00014865      -0.00548138      -0.04588266
Pt      -0.00000055       1.62074564      24.58417373        2       0.00000000       0.02433870      -0.01619714       0.02341163
Pt       2.80721438       1.62074544      24.58417388        2       0.00000000      -0.01911229      -0.02606272       0.02360155
Pt       5.61442780       1.62074536      24.58417376        2       0.00000000       0.00333941      -0.00917703      -0.06887247
Pt       1.40360636       4.05186448      24.58417388        2       0.00000000      -0.00282222      -0.15753102       0.20931163
Pt       4.21082089       4.05186396      24.58417385        2       0.00000000      -0.01124205       0.00423288      -0.06835079
Pt       7.01803505       4.05186407      24.58417401        2       0.00000000       0.00704430       0.01081748      -0.06852006
Pt       2.80721273       6.48298345      24.58417382        2       0.00000000       0.15851809       0.09195162       0.23875831
Pt       5.61442806       6.48298330      24.58417394        2       0.00000000      -0.00559890       0.03328511       0.03187038
Pt       8.42164223       6.48298339      24.58417374        2       0.00000000      -0.15597555       0.09687209       0.23846757
Pt      -0.03469301      -0.00898159      26.94595226        1       0.00000000       0.02038851      -0.01973556      -0.01104238
Pt       2.83415248      -0.02280718      26.94600914        1       0.00000000       0.01102662       0.02810352      -0.01673688
Pt       5.61112628       0.00207576      26.91709389        1       0.00000000       0.01400863      -0.00827865      -0.00005193
Pt       1.41103339       2.47695739      26.93591702        1       0.00000000      -0.02873183       0.00334174      -0.01918053
Pt       4.23082782       2.43877803      26.90739571        1       0.00000000      -0.01835663       0.02002341      -0.01184261
Pt       7.00276775       2.44725194      26.90746300        1       0.00000000      -0.00663010      -0.02295153      -0.01171608
Pt       2.80941446       4.86839648      26.91769112        1       0.00000000      -0.01453573      -0.00298623       0.00080174
Pt       5.60936424       4.84333691      26.90746520        1       0.00000000       0.02441007       0.00718795      -0.01125671
Pt       8.42227885       4.86289081      26.91767548        1       0.00000000       0.00195049       0.01910206       0.00111359
C        1.40359109       0.79707878      28.73623113        0       1.00000000       0.00085961      -0.01302655       0.01572563
H        1.42648174       1.83907389      29.12216190        0       0.00000000      -0.00898788      -0.01996127      -0.01926261
H        2.29215274       0.26445426      29.13815248        0       0.00000000      -0.00784300       0.00143868       0.00090212
H        0.49571699       0.30152239      29.14207689        0       0.00000000       0.01368257      -0.00724726      -0.00474178
