40
Lattice="8.421641763931781 0.0 0.0 4.2108208819658905 7.293355709136913 0.0 0.0 0.0 46.87624170604845" Properties=species:S:1:pos:R:3:tags:I:1:initial_magmoms:R:1:forces:R:3 charge=0 spin=0 energy=-206.89684798068726 free_energy=-206.89684798068726 stress="0.010385976172983646 6.145533006929327e-06 8.824077667668462e-06 6.145533006929327e-06 0.010344434529542923 2.679349563550204e-05 8.824077667668462e-06 2.679349563550204e-05 -0.0003271729510743171" pbc="T T T"
Pt      -0.00000012      -0.00000004      19.95723457        4       0.00000000      -0.00035660      -0.00064695       0.01329311
Pt       2.80721395      -0.00000016      19.95723462        4       0.00000000      -0.00230328      -0.00565133       0.01705347
Pt       5.61442787      -0.00000009      19.95723469        4       0.00000000       0.00139791      -0.00428662       0.01927662
Pt       1.40360721       2.43111844      19.95723450        4       0.00000000      -0.00419245      -0.00115432       0.01919982
Pt       4.21082082       2.43111841      19.95723461        4       0.00000000      -0.00043412      -0.00080342       0.02529421
Pt       7.01803480       2.43111847      19.95723446        4       0.00000000       0.00474696      -0.00034472       0.01720063
Pt       2.80721415       4.86223736      19.95723430        4       0.00000000      -0.00389667       0.00328199       0.01736935
Pt       5.61442796       4.86223738      19.95723451        4       0.00000000       0.00144193       0.00242177       0.01945624
Pt       8.42164141       4.86223712      19.95723445        4       0.00000000      -0.00002980      -0.00038316      -0.03667956
Pt       1.40360727       0.81037260      22.29206796        3       0.00000000      -0.00256151      -0.00678502      -0.00027774
Pt       4.21082131       0.81037250      22.29206795        3       0.00000000       0.00221301      -0.01400617      -0.06629938
Pt       7.01803474       0.81037257      22.29206787        3       0.00000000       0.00135635      -0.00101228      -0.00280380
Pt       2.80721448       3.24149122      22.29206776        3       0.00000000      -0.01430467      -0.00083365      -0.06725898
Pt       5.61442763       3.24149122      22.29206790        3       0.00000000       0.00602033       0.00685235      -0.06703501
Pt       8.42164153       3.24149129      22.29206804        3       0.00000000      -0.00366752       0.07374847      -0.15159447
Pt       4.21082092       5.67260997      22.29206741        3       0.00000000      -0.00487839      -0.00132238      -0.00546664
Pt       7.01803486       5.67261038      22.29206784        3       0.00000000       0.06459936      -0.03955649      -0.15090998
Pt       9.82524821       5.67261064      22.29206811        3       0.00000000      -0.06596317      -0.04189491      -0.14876802
Pt      -0.00000055       1.62074564      24.58417373        2       0.00000000       0.00514237      -0.23836622       0.25384545
Pt       2.80721438       1.62074544      24.58417388        2       0.00000000      -0.00268944       0.00235810      -0.02160392
Pt       5.61442780       1.62074536      24.58417376        2       0.00000000       0.01270161       0.00449365      -0.02399105
Pt       1.40360636       4.05186448      24.58417388        2       0.00000000      -0.00469634       0.01469281      -0.05233730
Pt       4.21082089       4.05186396      24.58417385        2       0.00000000       0.00898813       0.01811836      -0.01197955
Pt       7.01803505       4.05186407      24.58417401        2       0.00000000       0.01156534       0.02008875      -0.04726514
Pt       2.80721273       6.48298345      24.58417382        2       0.00000000       0.21752319       0.12904222       0.25467095
Pt       5.61442806       6.48298330      24.58417394        2       0.00000000      -0.20446186       0.13672452       0.26167929
Pt       8.42164223       6.48298339      24.58417374        2       0.00000000       0.01022597      -0.00130056      -0.05046707
Pt       0.00631397       0.01408138      27.14587487        1       0.00000000       0.00761666      -0.00510636       0.00200221
Pt       2.81871831       0.00763625      26.89948543        1       0.00000000      -0.01767516      -0.00464966      -0.00456010
Pt       5.62278527       0.01226315      26.89881063        1       0.00000000      -0.00078389      -0.01826218       0.00191632
Pt       1.41054420       2.44383473      26.89602574        1       0.00000000      -0.00665445      -0.00516951       0.00499888
Pt       4.21852397       2.44050056      26.90663653        1       0.00000000      -0.00061593       0.01303243      -0.00018325
Pt       7.02928376       2.44487646      26.89622288        1       0.00000000      -0.00422531       0.00365085      -0.00122090
Pt       2.81102100       4.87601386      26.89805937        1       0.00000000       0.00420799      -0.00209114      -0.00151357
Pt       5.62389836       4.87881588      26.89884332        1       0.00000000      -0.00617692      -0.01124917      -0.00486398
Pt       8.43092338       4.87510234      26.91193877        1       0.00000000      -0.00835796      -0.00789289       0.00261827
C        0.00835866       0.03761925      29.22993012        0       1.00000000       0.01011515       0.00277327      -0.02693404
H       -0.81736668      -0.59807831      29.57962907        0       0.00000000      -0.01757693      -0.01479606       0.00485828
H       -0.13302039       1.07741734      29.55946074        0       0.00000000       0.00490987      -0.00297938       0.00653630
H        0.97653225      -0.35405790      29.57460525        0       0.00000000       0.00173019      -0.00073486       0.00274412
