40
Lattice="8.421641763931781 0.0 0.0 4.2108208819658905 7.293355709136913 0.0 0.0 0.0 46.87624170604845" Properties=species:S:1:pos:R:3:tags:I:1:initial_magmoms:R:1:forces:R:3 charge=0 spin=0 energy=-205.9974835092517 free_energy=-205.9974835092517 stress="0.009919431991875172 3.8855532125126047e-07 6.575429551958223e-07 3.8855532125126047e-07 0.009884877130389214 1.3679915355169214e-05 6.575429551958223e-07 1.3679915355169214e-05 -0.0001879464543890208" pbc="T T T"
Pt      -0.00000012      -0.00000004      19.95723457        4       0.00000000      -0.00067565      -0.00233966       0.01796901
Pt       2.80721395      -0.00000016      19.95723462        4       0.00000000       0.00232127       0.00031194       0.01794253
Pt       5.61442787      -0.00000009      19.95723469        4       0.00000000       0.00181673       0.00626103       0.00719580
Pt       1.40360721       2.43111844      19.95723450        4       0.00000000      -0.00155439       0.00157472       0.01812020
Pt       4.21082082       2.43111841      19.95723461        4       0.00000000       0.00100508      -0.00061725       0.01742128
Pt       7.01803480       2.43111847      19.95723446        4       0.00000000       0.00006134       0.00107207       0.01734849
Pt       2.80721415       4.86223736      19.95723430        4       0.00000000       0.00548765      -0.00521618       0.00656041
Pt       5.61442796       4.86223738      19.95723451        4       0.00000000      -0.00096200      -0.00056573       0.01710371
Pt       8.42164141       4.86223712      19.95723445        4       0.00000000      -0.00733695      -0.00209698       0.00649517
Pt       1.40360727       0.81037260      22.29206796        3       0.00000000       0.00001401      -0.00010293      -0.04293320
Pt       4.21082131       0.81037250      22.29206795        3       0.00000000       0.01549136      -0.01161127      -0.07452094
Pt       7.01803474       0.81037257      22.29206787        3       0.00000000      -0.01404151      -0.00786501      -0.07327956
Pt       2.80721448       3.24149122      22.29206776        3       0.00000000       0.00073739       0.01594310      -0.07513442
Pt       5.61442763       3.24149122      22.29206790        3       0.00000000      -0.00011707      -0.00019869      -0.06921312
Pt       8.42164153       3.24149129      22.29206804        3       0.00000000       0.00146380       0.01902446      -0.07617714
Pt       4.21082092       5.67260997      22.29206741        3       0.00000000      -0.01757670      -0.00876682      -0.07479502
Pt       7.01803486       5.67261038      22.29206784        3       0.00000000       0.01381583      -0.00921762      -0.07401660
Pt       9.82524821       5.67261064      22.29206811        3       0.00000000      -0.00001379      -0.00289466      -0.04302870
Pt      -0.00000055       1.62074564      24.58417373        2       0.00000000       0.02768037      -0.02241021       0.02780595
Pt       2.80721438       1.62074544      24.58417388        2       0.00000000      -0.02977419      -0.01870701       0.02777316
Pt       5.61442780       1.62074536      24.58417376        2       0.00000000      -0.00732085      -0.02065706      -0.07355002
Pt       1.40360636       4.05186448      24.58417388        2       0.00000000      -0.00766208      -0.16096087       0.22822700
Pt       4.21082089       4.05186396      24.58417385        2       0.00000000      -0.01499745       0.01797529      -0.07357638
Pt       7.01803505       4.05186407      24.58417401        2       0.00000000       0.02213653       0.00604265      -0.07362433
Pt       2.80721273       6.48298345      24.58417382        2       0.00000000       0.15415786       0.08184735       0.24348105
Pt       5.61442806       6.48298330      24.58417394        2       0.00000000       0.00206611       0.03715592       0.03163322
Pt       8.42164223       6.48298339      24.58417374        2       0.00000000      -0.14574686       0.09530769       0.24275771
Pt      -0.03289639      -0.02326746      26.94409145        1       0.00000000       0.02046451       0.03301237      -0.01986238
Pt       2.84505879      -0.01523715      26.94392201        1       0.00000000      -0.03866015       0.00173705      -0.01842720
Pt       5.61506695       0.00052297      26.92143397        1       0.00000000      -0.00088620      -0.00827876      -0.01585146
Pt       1.39895287       2.47737244      26.93911955        1       0.00000000       0.01817628      -0.02940948      -0.02263948
Pt       4.22707139       2.44858568      26.90505177        1       0.00000000      -0.01324769      -0.02968619       0.00126834
Pt       6.99572929       2.43802411      26.90501470        1       0.00000000       0.03327730       0.00435788       0.00114328
Pt       2.80680739       4.86402037      26.92171410        1       0.00000000      -0.00756195       0.00647943      -0.01499733
Pt       5.62054523       4.84087491      26.90504047        1       0.00000000      -0.01945930       0.02705456       0.00135937
Pt       8.42166475       4.86490611      26.92172521        1       0.00000000       0.00771269       0.00604675      -0.01516590
C        1.40334004       0.80338257      28.72745590        0       1.00000000      -0.00045138      -0.00623521       0.02854057
H        2.29797008       0.27986689      29.13026245        0       0.00000000      -0.02137498       0.01333416      -0.00739769
H        0.50028588       0.29347609      29.12914286        0       0.00000000       0.02608724       0.00501096      -0.00589460
H        1.41072411       1.84377649      29.12068795        0       0.00000000      -0.00455244      -0.03171161      -0.01606073
