40
Lattice="8.421641763931781 0.0 0.0 4.2108208819658905 7.293355709136913 0.0 0.0 0.0 46.87624170604845" Properties=species:S:1:pos:R:3:tags:I:1:initial_magmoms:R:1:forces:R:3 charge=0 spin=0 energy=-205.99791838474 free_energy=-205.99791838474 stress="0.009844329208135605 1.2185850550849864e-07 4.9740382479512846e-08 1.2185850550849864e-07 0.009838664904236794 3.338519263706985e-06 4.9740382479512846e-08 3.338519263706985e-06 -0.00029701131279580295" pbc="T T T"
Pt      -0.00000012      -0.00000004      19.95723457        4       0.00000000      -0.00074688      -0.00203217       0.01783337
Pt       2.80721395      -0.00000016      19.95723462        4       0.00000000       0.00213452       0.00033222       0.01780506
Pt       5.61442787      -0.00000009      19.95723469        4       0.00000000       0.00167807       0.00713945       0.00676694
Pt       1.40360721       2.43111844      19.95723450        4       0.00000000      -0.00136684       0.00162497       0.01789569
Pt       4.21082082       2.43111841      19.95723461        4       0.00000000       0.00082755      -0.00051252       0.01734654
Pt       7.01803480       2.43111847      19.95723446        4       0.00000000       0.00002322       0.00090316       0.01735502
Pt       2.80721415       4.86223736      19.95723430        4       0.00000000       0.00551384      -0.00510832       0.00672356
Pt       5.61442796       4.86223738      19.95723451        4       0.00000000      -0.00082703      -0.00045056       0.01725082
Pt       8.42164141       4.86223712      19.95723445        4       0.00000000      -0.00719774      -0.00223850       0.00670785
Pt       1.40360727       0.81037260      22.29206796        3       0.00000000       0.00000263       0.00001271      -0.04305085
Pt       4.21082131       0.81037250      22.29206795        3       0.00000000       0.01558407      -0.01115280      -0.07489040
Pt       7.01803474       0.81037257      22.29206787        3       0.00000000      -0.01506999      -0.00765127      -0.07307902
Pt       2.80721448       3.24149122      22.29206776        3       0.00000000       0.00107762       0.01676952      -0.07339492
Pt       5.61442763       3.24149122      22.29206790        3       0.00000000      -0.00001942      -0.00006136      -0.06995606
Pt       8.42164153       3.24149129      22.29206804        3       0.00000000       0.00165129       0.01906176      -0.07510477
Pt       4.21082092       5.67260997      22.29206741        3       0.00000000      -0.01734504      -0.00824054      -0.07475441
Pt       7.01803486       5.67261038      22.29206784        3       0.00000000       0.01405644      -0.00943454      -0.07312986
Pt       9.82524821       5.67261064      22.29206811        3       0.00000000       0.00000893      -0.00059201      -0.04375819
Pt      -0.00000055       1.62074564      24.58417373        2       0.00000000       0.02769426      -0.01637340       0.00765674
Pt       2.80721438       1.62074544      24.58417388        2       0.00000000      -0.02747952      -0.01669625       0.00772023
Pt       5.61442780       1.62074536      24.58417376        2       0.00000000      -0.00270655      -0.02514170      -0.08288682
Pt       1.40360636       4.05186448      24.58417388        2       0.00000000      -0.00630836      -0.16493209       0.23292537
Pt       4.21082089       4.05186396      24.58417385        2       0.00000000      -0.02068909       0.01523410      -0.08224537
Pt       7.01803505       4.05186407      24.58417401        2       0.00000000       0.02335254       0.01086423      -0.08228970
Pt       2.80721273       6.48298345      24.58417382        2       0.00000000       0.14850405       0.07854997       0.23467779
Pt       5.61442806       6.48298330      24.58417394        2       0.00000000      -0.00016118       0.03207447       0.00883426
Pt       8.42164223       6.48298339      24.58417374        2       0.00000000      -0.14216131       0.08981646       0.23452815
Pt      -0.03217099      -0.01841290      26.93918713        1       0.00000000      -0.01293547      -0.00989797      -0.00886014
Pt       2.83949953      -0.01834825      26.93920348        1       0.00000000       0.01522487      -0.00576878      -0.00888869
Pt       5.61414048      -0.00068821      26.92111741        1       0.00000000       0.00186057      -0.00979471      -0.01550199
Pt       1.40355382       2.46996801      26.93820923        1       0.00000000      -0.00230231       0.01601613      -0.00952114
Pt       4.22865957       2.44345037      26.90192313        1       0.00000000      -0.01541683      -0.00962716       0.01660028
Pt       6.99860413       2.44060304      26.90191617        1       0.00000000       0.01674951      -0.00708051       0.01658690
Pt       2.80677463       4.86369976      26.92137048        1       0.00000000      -0.01031977       0.00236985      -0.01656984
Pt       5.61607249       4.84056918      26.90211200        1       0.00000000      -0.00145263       0.02049058       0.01610883
Pt       8.42238494       4.86318942      26.92136703        1       0.00000000       0.00860466       0.00545328      -0.01656280
C        1.40357741       0.80990248      28.72973444        0       1.00000000      -0.00018810       0.00278155      -0.04445005
H        1.39617151       1.84835109      29.12211151        0       0.00000000      -0.00000902       0.01427572       0.02082819
H        2.30582334       0.29832417      29.12477766        0       0.00000000       0.01702279      -0.01065717       0.02335916
H        0.50872454       0.28547678      29.12477732        0       0.00000000      -0.01686835      -0.01032564       0.02338435
