40
Lattice="8.421641763931781 0.0 0.0 4.2108208819658905 7.293355709136913 0.0 0.0 0.0 46.87624170604845" Properties=species:S:1:pos:R:3:tags:I:1:initial_magmoms:R:1:forces:R:3 charge=0 spin=0 energy=-205.99748541660034 free_energy=-205.99748541660034 stress="0.00991942547261715 4.022386974611436e-07 6.725629759785079e-07 4.022386974611436e-07 0.00988488644361496 1.367573258903576e-05 6.725629759785079e-07 1.367573258903576e-05 -0.00018796334916260093" pbc="T T T"
Pt      -0.00000012      -0.00000004      19.95723457        4       0.00000000      -0.00067597      -0.00233948       0.01796882
Pt       2.80721395      -0.00000016      19.95723462        4       0.00000000       0.00232096       0.00031192       0.01794242
Pt       5.61442787      -0.00000009      19.95723469        4       0.00000000       0.00181670       0.00626127       0.00719565
Pt       1.40360721       2.43111844      19.95723450        4       0.00000000      -0.00155459       0.00157447       0.01811982
Pt       4.21082082       2.43111841      19.95723461        4       0.00000000       0.00100482      -0.00061708       0.01742135
Pt       7.01803480       2.43111847      19.95723446        4       0.00000000       0.00006126       0.00107209       0.01734830
Pt       2.80721415       4.86223736      19.95723430        4       0.00000000       0.00548723      -0.00521571       0.00656058
Pt       5.61442796       4.86223738      19.95723451        4       0.00000000      -0.00096207      -0.00056587       0.01710388
Pt       8.42164141       4.86223712      19.95723445        4       0.00000000      -0.00733731      -0.00209730       0.00649506
Pt       1.40360727       0.81037260      22.29206796        3       0.00000000       0.00001427      -0.00010281      -0.04293274
Pt       4.21082131       0.81037250      22.29206795        3       0.00000000       0.01549136      -0.01161133      -0.07452233
Pt       7.01803474       0.81037257      22.29206787        3       0.00000000      -0.01404223      -0.00786518      -0.07327862
Pt       2.80721448       3.24149122      22.29206776        3       0.00000000       0.00073754       0.01594290      -0.07513347
Pt       5.61442763       3.24149122      22.29206790        3       0.00000000      -0.00011701      -0.00019884      -0.06921288
Pt       8.42164153       3.24149129      22.29206804        3       0.00000000       0.00146298       0.01902516      -0.07617690
Pt       4.21082092       5.67260997      22.29206741        3       0.00000000      -0.01757676      -0.00876639      -0.07479409
Pt       7.01803486       5.67261038      22.29206784        3       0.00000000       0.01381590      -0.00921801      -0.07401835
Pt       9.82524821       5.67261064      22.29206811        3       0.00000000      -0.00001764      -0.00289355      -0.04302919
Pt      -0.00000055       1.62074564      24.58417373        2       0.00000000       0.02768225      -0.02241044       0.02780578
Pt       2.80721438       1.62074544      24.58417388        2       0.00000000      -0.02977591      -0.01870195       0.02776545
Pt       5.61442780       1.62074536      24.58417376        2       0.00000000      -0.00731821      -0.02065464      -0.07354990
Pt       1.40360636       4.05186448      24.58417388        2       0.00000000      -0.00766113      -0.16096607       0.22822952
Pt       4.21082089       4.05186396      24.58417385        2       0.00000000      -0.01499391       0.01797211      -0.07357439
Pt       7.01803505       4.05186407      24.58417401        2       0.00000000       0.02213553       0.00604203      -0.07361994
Pt       2.80721273       6.48298345      24.58417382        2       0.00000000       0.15416370       0.08185064       0.24348278
Pt       5.61442806       6.48298330      24.58417394        2       0.00000000       0.00205946       0.03715451       0.03162647
Pt       8.42164223       6.48298339      24.58417374        2       0.00000000      -0.14573702       0.09530099       0.24274287
Pt      -0.03289356      -0.02326586      26.94409334        1       0.00000000       0.02046567       0.03301001      -0.01985695
Pt       2.84506176      -0.01523955      26.94391683        1       0.00000000      -0.03865076       0.00173130      -0.01841933
Pt       5.61506897       0.00052244      26.92143405        1       0.00000000      -0.00088340      -0.00827796      -0.01584941
Pt       1.39895461       2.47737051      26.93912112        1       0.00000000       0.01817424      -0.02940432      -0.02264192
Pt       4.22707109       2.44858322      26.90505127        1       0.00000000      -0.01323309      -0.02966923       0.00126624
Pt       6.99573219       2.43802319      26.90501484        1       0.00000000       0.03326002       0.00436753       0.00114306
Pt       2.80680824       4.86402103      26.92171216        1       0.00000000      -0.00755902       0.00647344      -0.01498940
Pt       5.62054521       4.84087624      26.90504009        1       0.00000000      -0.01945391       0.02703229       0.00135492
Pt       8.42166687       4.86490467      26.92172366        1       0.00000000       0.00770890       0.00604549      -0.01516501
C        1.40333315       0.80338403      28.72745532        0       1.00000000      -0.00044873      -0.00620563       0.02854848
H        0.50027763       0.29348288      29.12914587        0       0.00000000       0.02609224       0.00501380      -0.00588476
H        1.41072641       1.84377913      29.12068737        0       0.00000000      -0.00456025      -0.03174427      -0.01606482
H        2.29796415       0.27986259      29.13025487        0       0.00000000      -0.02139613       0.01334404      -0.00740723
