40
Lattice="8.421641763931781 0.0 0.0 4.2108208819658905 7.293355709136913 0.0 0.0 0.0 46.87624170604845" Properties=species:S:1:pos:R:3:tags:I:1:initial_magmoms:R:1:forces:R:3 charge=0 spin=0 energy=-205.9978726083728 free_energy=-205.9978726083728 stress="0.009963689371943474 -3.1954136829881463e-06 -9.03413194919267e-07 -3.1954136829881463e-06 0.009859463199973106 4.2476396629353985e-05 -9.03413194919267e-07 4.2476396629353985e-05 -0.00019577081548050046" pbc="T T T"
Pt      -0.00000012      -0.00000004      19.95723457        4       0.00000000      -0.00033786      -0.00239202       0.01784397
Pt       2.80721395      -0.00000016      19.95723462        4       0.00000000       0.00209699       0.00010538       0.01782086
Pt       5.61442787      -0.00000009      19.95723469        4       0.00000000       0.00183671       0.00496106       0.00833923
Pt       1.40360721       2.43111844      19.95723450        4       0.00000000      -0.00150728       0.00097712       0.01817353
Pt       4.21082082       2.43111841      19.95723461        4       0.00000000       0.00128403      -0.00086768       0.01777026
Pt       7.01803480       2.43111847      19.95723446        4       0.00000000       0.00017665       0.00129057       0.01750958
Pt       2.80721415       4.86223736      19.95723430        4       0.00000000       0.00637968      -0.00568170       0.00635352
Pt       5.61442796       4.86223738      19.95723451        4       0.00000000      -0.00121252      -0.00064895       0.01686955
Pt       8.42164141       4.86223712      19.95723445        4       0.00000000      -0.00822734      -0.00235623       0.00628281
Pt       1.40360727       0.81037260      22.29206796        3       0.00000000       0.00000097      -0.00020060      -0.04270725
Pt       4.21082131       0.81037250      22.29206795        3       0.00000000       0.01483862      -0.01366724      -0.07205884
Pt       7.01803474       0.81037257      22.29206787        3       0.00000000      -0.01296156      -0.00858145      -0.07134777
Pt       2.80721448       3.24149122      22.29206776        3       0.00000000       0.00039263       0.01530871      -0.07745675
Pt       5.61442763       3.24149122      22.29206790        3       0.00000000      -0.00042273      -0.00049894      -0.06598008
Pt       8.42164153       3.24149129      22.29206804        3       0.00000000       0.00198425       0.01902845      -0.07787838
Pt       4.21082092       5.67260997      22.29206741        3       0.00000000      -0.01877814      -0.00918669      -0.07368648
Pt       7.01803486       5.67261038      22.29206784        3       0.00000000       0.01412433      -0.00971784      -0.07358243
Pt       9.82524821       5.67261064      22.29206811        3       0.00000000       0.00032057      -0.00859484      -0.04595767
Pt      -0.00000055       1.62074564      24.58417373        2       0.00000000       0.01583851      -0.03011450       0.02183464
Pt       2.80721438       1.62074544      24.58417388        2       0.00000000      -0.02194254      -0.01901907       0.02278176
Pt       5.61442780       1.62074536      24.58417376        2       0.00000000      -0.00864464      -0.00845744      -0.06856941
Pt       1.40360636       4.05186448      24.58417388        2       0.00000000      -0.01075142      -0.14561342       0.19754466
Pt       4.21082089       4.05186396      24.58417385        2       0.00000000      -0.00490452       0.01541165      -0.06745454
Pt       7.01803505       4.05186407      24.58417401        2       0.00000000       0.01321850       0.00219630      -0.06790003
Pt       2.80721273       6.48298345      24.58417382        2       0.00000000       0.16516457       0.08810688       0.24417414
Pt       5.61442806       6.48298330      24.58417394        2       0.00000000       0.00723785       0.03470835       0.03556306
Pt       8.42164223       6.48298339      24.58417374        2       0.00000000      -0.15344253       0.10749137       0.24421585
Pt      -0.02432817      -0.02238857      26.94758891        1       0.00000000      -0.01227800       0.03148960      -0.01814136
Pt       2.84187232      -0.00559491      26.94772637        1       0.00000000      -0.02405861      -0.02073306      -0.00724835
Pt       5.61916521       0.00377067      26.91696928        1       0.00000000      -0.01833212      -0.01188045      -0.00099730
Pt       1.39427012       2.48138844      26.93172999        1       0.00000000       0.03200362       0.00564176      -0.01950411
Pt       4.22527760       2.45017389      26.90796930        1       0.00000000       0.00488471      -0.01937653      -0.01352407
Pt       6.99709325       2.43789906      26.90775339        1       0.00000000       0.01734341       0.01836052      -0.01375527
Pt       2.80699348       4.86357872      26.91793901        1       0.00000000      -0.00374003       0.02643813       0.00078518
Pt       5.62169808       4.84411966      26.90794667        1       0.00000000      -0.02147553       0.00800934      -0.01301533
Pt       8.41807341       4.87117925      26.91790239        1       0.00000000       0.02008834      -0.00205892       0.00033153
C        1.40362781       0.78940316      28.73455817        0       1.00000000      -0.00122891      -0.01923804       0.02852649
H        0.52216714       0.24577539      29.13870092        0       0.00000000       0.01896902       0.00312451       0.00305616
H        1.36393500       1.83397570      29.11371843        0       0.00000000       0.01240050      -0.03771979      -0.02789155
H        2.31848780       0.30993936      29.14523038        0       0.00000000      -0.02633815      -0.00604446      -0.00711979
