40
Lattice="8.421641763931781 0.0 0.0 4.2108208819658905 7.293355709136913 0.0 0.0 0.0 46.87624170604845" Properties=species:S:1:pos:R:3:tags:I:1:initial_magmoms:R:1:forces:R:3 charge=0 spin=0 energy=-206.89706923312866 free_energy=-206.89706923312866 stress="0.010362786240875721 5.856733423570404e-06 -3.5428652154223528e-06 5.856733423570404e-06 0.010378931649029255 -9.330158718512394e-06 -3.5428652154223528e-06 -9.330158718512394e-06 -0.00031608197605237365" pbc="T T T"
Pt      -0.00000012      -0.00000004      19.95723457        4       0.00000000      -0.00365472       0.00413565       0.01735135
Pt       2.80721395      -0.00000016      19.95723462        4       0.00000000       0.00195456       0.00364112       0.01942821
Pt       5.61442787      -0.00000009      19.95723469        4       0.00000000       0.00029687       0.00012574      -0.03685777
Pt       1.40360721       2.43111844      19.95723450        4       0.00000000       0.00009839       0.00005179       0.01330476
Pt       4.21082082       2.43111841      19.95723461        4       0.00000000      -0.00198622      -0.00490460       0.01728061
Pt       7.01803480       2.43111847      19.95723446        4       0.00000000       0.00199402      -0.00348772       0.01931778
Pt       2.80721415       4.86223736      19.95723430        4       0.00000000      -0.00401144       0.00001876       0.01930813
Pt       5.61442796       4.86223738      19.95723451        4       0.00000000       0.00018972       0.00000461       0.02546789
Pt       8.42164141       4.86223712      19.95723445        4       0.00000000       0.00526046       0.00093639       0.01723897
Pt       1.40360727       0.81037260      22.29206796        3       0.00000000      -0.00354552       0.00192098      -0.00348753
Pt       4.21082131       0.81037250      22.29206795        3       0.00000000       0.06640211      -0.03599375      -0.14989309
Pt       7.01803474       0.81037257      22.29206787        3       0.00000000      -0.06381634      -0.03914283      -0.14957647
Pt       2.80721448       3.24149122      22.29206776        3       0.00000000      -0.00018944      -0.00329710      -0.00243653
Pt       5.61442763       3.24149122      22.29206790        3       0.00000000       0.00437852      -0.01095071      -0.06719746
Pt       8.42164153       3.24149129      22.29206804        3       0.00000000       0.00328281       0.00162110      -0.00345701
Pt       4.21082092       5.67260997      22.29206741        3       0.00000000      -0.01168716       0.00199104      -0.06774361
Pt       7.01803486       5.67261038      22.29206784        3       0.00000000       0.00742954       0.00938483      -0.06605249
Pt       9.82524821       5.67261064      22.29206811        3       0.00000000      -0.00161693       0.07584807      -0.14990957
Pt      -0.00000055       1.62074564      24.58417373        2       0.00000000       0.21399483       0.12091169       0.24322015
Pt       2.80721438       1.62074544      24.58417388        2       0.00000000      -0.20535403       0.12485402       0.25876033
Pt       5.61442780       1.62074536      24.58417376        2       0.00000000       0.00017382      -0.01583117      -0.04619584
Pt       1.40360636       4.05186448      24.58417388        2       0.00000000      -0.00056886      -0.24652956       0.24986622
Pt       4.21082089       4.05186396      24.58417385        2       0.00000000      -0.01310169      -0.00800985      -0.01344299
Pt       7.01803505       4.05186407      24.58417401        2       0.00000000       0.00738172      -0.00632668      -0.02044964
Pt       2.80721273       6.48298345      24.58417382        2       0.00000000      -0.01751740       0.00546794      -0.04846391
Pt       5.61442806       6.48298330      24.58417394        2       0.00000000       0.00425266       0.01066918      -0.02098496
Pt       8.42164223       6.48298339      24.58417374        2       0.00000000       0.01154438       0.00957746      -0.04966218
Pt      -0.00199059       0.00313244      26.89503967        1       0.00000000      -0.00917701      -0.00870602       0.00454411
Pt       2.81114870      -0.00029245      26.89764532        1       0.00000000      -0.00504222       0.00801915       0.00185553
Pt       5.61117610      -0.00047004      26.91724579        1       0.00000000       0.01211458       0.00153104      -0.01190516
Pt       1.40682496       2.43029435      27.14231204        1       0.00000000      -0.01223706      -0.00450748       0.03252494
Pt       4.21327442       2.42755639      26.90140512        1       0.00000000      -0.00524196      -0.00282766      -0.01641653
Pt       7.01990560       2.42650777      26.89512750        1       0.00000000      -0.00451813       0.00328599       0.01126901
Pt       2.80191724       4.86562813      26.89693616        1       0.00000000       0.01029425      -0.01139345       0.00531631
Pt       5.61220757       4.86199248      26.90494163        1       0.00000000       0.00641553      -0.00188553       0.00160966
Pt       8.42517653       4.86077282      26.89673604        1       0.00000000      -0.00245369       0.01265053      -0.00005924
C        1.40027062       2.42425930      29.22868520        0       1.00000000       0.00995373      -0.01992656      -0.02370206
H        0.68174170       3.18384436      29.57046316        0       0.00000000      -0.00196880      -0.00985076      -0.00064637
H        2.41771576       2.66819884      29.56920572        0       0.00000000      -0.01261050      -0.00659527       0.00552940
H        1.10261975       1.42020672      29.56946923        0       0.00000000       0.01288664       0.04351983      -0.01465289
