40
Lattice="8.421641763931781 0.0 0.0 4.2108208819658905 7.293355709136913 0.0 0.0 0.0 46.87624170604845" Properties=species:S:1:pos:R:3:tags:I:1:initial_magmoms:R:1:forces:R:3 charge=0 spin=0 energy=-206.89720084018433 free_energy=-206.89720084018433 stress="0.010328956879675388 3.2979030493152095e-06 5.985360758131719e-07 3.2979030493152095e-06 0.010298680514097214 -8.134154995786957e-06 5.985360758131719e-07 -8.134154995786957e-06 -0.0004114723124075681" pbc="T T T"
Pt      -0.00000012      -0.00000004      19.95723457        4       0.00000000      -0.00368269       0.00442098       0.01728437
Pt       2.80721395      -0.00000016      19.95723462        4       0.00000000       0.00206790       0.00368965       0.01933254
Pt       5.61442787      -0.00000009      19.95723469        4       0.00000000      -0.00001168      -0.00025367      -0.03716816
Pt       1.40360721       2.43111844      19.95723450        4       0.00000000      -0.00023782      -0.00011555       0.01300100
Pt       4.21082082       2.43111841      19.95723461        4       0.00000000      -0.00218056      -0.00458195       0.01729069
Pt       7.01803480       2.43111847      19.95723446        4       0.00000000       0.00179187      -0.00316909       0.01948826
Pt       2.80721415       4.86223736      19.95723430        4       0.00000000      -0.00423224      -0.00000640       0.01912353
Pt       5.61442796       4.86223738      19.95723451        4       0.00000000      -0.00007342       0.00011610       0.02534054
Pt       8.42164141       4.86223712      19.95723445        4       0.00000000       0.00512466       0.00082976       0.01726068
Pt       1.40360727       0.81037260      22.29206796        3       0.00000000      -0.00305377       0.00200945      -0.00365812
Pt       4.21082131       0.81037250      22.29206795        3       0.00000000       0.06651995      -0.03598353      -0.15097472
Pt       7.01803474       0.81037257      22.29206787        3       0.00000000      -0.06567191      -0.03890145      -0.15001078
Pt       2.80721448       3.24149122      22.29206776        3       0.00000000      -0.00120445      -0.00336006      -0.00255702
Pt       5.61442763       3.24149122      22.29206790        3       0.00000000       0.00344774      -0.00974949      -0.06527656
Pt       8.42164153       3.24149129      22.29206804        3       0.00000000       0.00265414       0.00145234      -0.00270019
Pt       4.21082092       5.67260997      22.29206741        3       0.00000000      -0.01238803       0.00279881      -0.06729311
Pt       7.01803486       5.67261038      22.29206784        3       0.00000000       0.00699722       0.01038711      -0.06664549
Pt       9.82524821       5.67261064      22.29206811        3       0.00000000      -0.00243508       0.07537007      -0.14881472
Pt      -0.00000055       1.62074564      24.58417373        2       0.00000000       0.20803331       0.12329260       0.23696160
Pt       2.80721438       1.62074544      24.58417388        2       0.00000000      -0.20485596       0.12944585       0.23636046
Pt       5.61442780       1.62074536      24.58417376        2       0.00000000       0.00590425      -0.01585137      -0.05285259
Pt       1.40360636       4.05186448      24.58417388        2       0.00000000      -0.00091986      -0.24493571       0.23797153
Pt       4.21082089       4.05186396      24.58417385        2       0.00000000      -0.00313476      -0.01127833      -0.01939712
Pt       7.01803505       4.05186407      24.58417401        2       0.00000000       0.00864773      -0.01273083      -0.01797523
Pt       2.80721273       6.48298345      24.58417382        2       0.00000000      -0.01300547      -0.00019463      -0.05799015
Pt       5.61442806       6.48298330      24.58417394        2       0.00000000       0.00225703       0.00741885      -0.03352215
Pt       8.42164223       6.48298339      24.58417374        2       0.00000000       0.01466184       0.00204471      -0.06012127
Pt      -0.00121968       0.00460065      26.89239319        1       0.00000000      -0.01316247      -0.02782966       0.02120730
Pt       2.81356750       0.00402550      26.89210167        1       0.00000000       0.00164866      -0.02794609       0.02202653
Pt       5.61587391      -0.00799936      26.91197594        1       0.00000000       0.00513153       0.01058965       0.00427758
Pt       1.40487185       2.42188893      27.13611041        1       0.00000000       0.00133922       0.03558530       0.02403482
Pt       4.21493661       2.42227256      26.89857270        1       0.00000000       0.00382004       0.01565696      -0.00264900
Pt       7.01699922       2.42407271      26.90000757        1       0.00000000      -0.00054156       0.01127550      -0.00858592
Pt       2.80934644       4.85635407      26.89467988        1       0.00000000      -0.00576277       0.01569289       0.00594644
Pt       5.61807929       4.86694394      26.90443569        1       0.00000000      -0.00472984      -0.02947331       0.00346967
Pt       8.42718463       4.85639126      26.89570126        1       0.00000000      -0.00093731       0.01724839       0.00359846
C        1.40432050       2.43272805      29.21941361        0       1.00000000       0.00259848       0.01742097       0.01768328
H        1.40665096       1.39126659      29.57042168        0       0.00000000      -0.00261219      -0.04107400      -0.00730009
H        0.49608745       2.95305538      29.55984766        0       0.00000000       0.03474626       0.00885428      -0.00495813
H        2.31152858       2.95563507      29.55830891        0       0.00000000      -0.03255802       0.01183467      -0.00120888
