40
Lattice="8.421641763931781 0.0 0.0 4.2108208819658905 7.293355709136913 0.0 0.0 0.0 46.87624170604845" Properties=species:S:1:pos:R:3:tags:I:1:initial_magmoms:R:1:forces:R:3 charge=0 spin=0 energy=-205.99759222812378 free_energy=-205.99759222812378 stress="0.009894809685647488 -1.5371354322724073e-07 -2.5590446739442996e-07 -1.5371354322724073e-07 0.009878301061689854 6.504125849460252e-06 -2.5590446739442996e-07 6.504125849460252e-06 -0.00021341252431739122" pbc="T T T"
Pt      -0.00000012      -0.00000004      19.95723457        4       0.00000000      -0.00088237      -0.00197845       0.01802875
Pt       2.80721395      -0.00000016      19.95723462        4       0.00000000       0.00214000       0.00009873       0.01799287
Pt       5.61442787      -0.00000009      19.95723469        4       0.00000000       0.00151848       0.00669110       0.00686654
Pt       1.40360721       2.43111844      19.95723450        4       0.00000000      -0.00120251       0.00167188       0.01812118
Pt       4.21082082       2.43111841      19.95723461        4       0.00000000       0.00093717      -0.00036174       0.01733017
Pt       7.01803480       2.43111847      19.95723446        4       0.00000000      -0.00013142       0.00093934       0.01732340
Pt       2.80721415       4.86223736      19.95723430        4       0.00000000       0.00551245      -0.00489952       0.00654218
Pt       5.61442796       4.86223738      19.95723451        4       0.00000000      -0.00074783      -0.00063023       0.01715977
Pt       8.42164141       4.86223712      19.95723445        4       0.00000000      -0.00700494      -0.00229509       0.00656661
Pt       1.40360727       0.81037260      22.29206796        3       0.00000000       0.00001817      -0.00004294      -0.04261370
Pt       4.21082131       0.81037250      22.29206795        3       0.00000000       0.01470299      -0.01139267      -0.07537776
Pt       7.01803474       0.81037257      22.29206787        3       0.00000000      -0.01507483      -0.00763525      -0.07324745
Pt       2.80721448       3.24149122      22.29206776        3       0.00000000       0.00123386       0.01683013      -0.07409332
Pt       5.61442763       3.24149122      22.29206790        3       0.00000000      -0.00005005      -0.00009548      -0.06900082
Pt       8.42164153       3.24149129      22.29206804        3       0.00000000       0.00211198       0.01838218      -0.07605554
Pt       4.21082092       5.67260997      22.29206741        3       0.00000000      -0.01708548      -0.00766395      -0.07548311
Pt       7.01803486       5.67261038      22.29206784        3       0.00000000       0.01410092      -0.00972030      -0.07351214
Pt       9.82524821       5.67261064      22.29206811        3       0.00000000       0.00005662      -0.00138309      -0.04277863
Pt      -0.00000055       1.62074564      24.58417373        2       0.00000000       0.02972227      -0.01758540       0.02340402
Pt       2.80721438       1.62074544      24.58417388        2       0.00000000      -0.02855014      -0.01975424       0.02360657
Pt       5.61442780       1.62074536      24.58417376        2       0.00000000       0.00034284      -0.02061677      -0.07632305
Pt       1.40360636       4.05186448      24.58417388        2       0.00000000      -0.00658869      -0.16434973       0.23113906
Pt       4.21082089       4.05186396      24.58417385        2       0.00000000      -0.01845987       0.01058801      -0.07642306
Pt       7.01803505       4.05186407      24.58417401        2       0.00000000       0.01793889       0.01159950      -0.07650128
Pt       2.80721273       6.48298345      24.58417382        2       0.00000000       0.15041119       0.08007099       0.23804808
Pt       5.61442806       6.48298330      24.58417394        2       0.00000000      -0.00104059       0.03552349       0.02527650
Pt       8.42164223       6.48298339      24.58417374        2       0.00000000      -0.14425671       0.09193232       0.23846224
Pt      -0.03726725      -0.01801010      26.94195730        1       0.00000000       0.03471699       0.00272167      -0.01450583
Pt       2.84187143      -0.02239741      26.94214324        1       0.00000000      -0.01960727       0.02885648      -0.01492856
Pt       5.61492439       0.00026397      26.92121573        1       0.00000000      -0.00408968      -0.01149832      -0.01439260
Pt       1.40606983       2.47521295      26.93974507        1       0.00000000      -0.01514942      -0.02907006      -0.01642132
Pt       4.23083482       2.44092693      26.90439036        1       0.00000000      -0.02678644       0.00041469       0.00415945
Pt       6.99997579       2.44429349      26.90439784        1       0.00000000       0.01326195      -0.02281123       0.00416248
Pt       2.80680977       4.86279325      26.92133291        1       0.00000000      -0.00793540       0.01061315      -0.01394983
Pt       5.61245988       4.84068884      26.90437733        1       0.00000000       0.01322430       0.02320658       0.00431735
Pt       8.42142473       4.86377072      26.92132491        1       0.00000000       0.01234188       0.00297512      -0.01391618
C        1.40380901       0.80705493      28.72622473        0       1.00000000       0.00036128      -0.00303227       0.02552856
H        0.51656726       0.26953458      29.12678426        0       0.00000000       0.01985597       0.01548241      -0.00698976
H        1.38120411       1.84599245      29.12229957        0       0.00000000       0.00535862      -0.02789111      -0.01117158
H        2.31400731       0.30898858      29.12639642        0       0.00000000      -0.02522514       0.00611001      -0.00635032
