40
Lattice="8.421641763931781 0.0 0.0 4.2108208819658905 7.293355709136913 0.0 0.0 0.0 46.87624170604845" Properties=species:S:1:pos:R:3:tags:I:1:initial_magmoms:R:1:forces:R:3 charge=0 spin=0 energy=-205.99792219943726 free_energy=-205.99792219943726 stress="0.009844339452683926 1.1463247062692972e-07 4.796552133257137e-08 1.1463247062692972e-07 0.009838663041591644 3.33818070430425e-06 4.796552133257137e-08 3.33818070430425e-06 -0.0002970054920297116" pbc="T T T"
Pt      -0.00000012      -0.00000004      19.95723457        4       0.00000000      -0.00074700      -0.00203230       0.01783339
Pt       2.80721395      -0.00000016      19.95723462        4       0.00000000       0.00213478       0.00033209       0.01780525
Pt       5.61442787      -0.00000009      19.95723469        4       0.00000000       0.00167817       0.00713935       0.00676716
Pt       1.40360721       2.43111844      19.95723450        4       0.00000000      -0.00136694       0.00162502       0.01789567
Pt       4.21082082       2.43111841      19.95723461        4       0.00000000       0.00082759      -0.00051249       0.01734648
Pt       7.01803480       2.43111847      19.95723446        4       0.00000000       0.00002331       0.00090320       0.01735523
Pt       2.80721415       4.86223736      19.95723430        4       0.00000000       0.00551384      -0.00510836       0.00672333
Pt       5.61442796       4.86223738      19.95723451        4       0.00000000      -0.00082704      -0.00045048       0.01725080
Pt       8.42164141       4.86223712      19.95723445        4       0.00000000      -0.00719753      -0.00223846       0.00670787
Pt       1.40360727       0.81037260      22.29206796        3       0.00000000       0.00000193       0.00001272      -0.04305176
Pt       4.21082131       0.81037250      22.29206795        3       0.00000000       0.01558390      -0.01115312      -0.07488983
Pt       7.01803474       0.81037257      22.29206787        3       0.00000000      -0.01506982      -0.00765123      -0.07307960
Pt       2.80721448       3.24149122      22.29206776        3       0.00000000       0.00107764       0.01676943      -0.07339527
Pt       5.61442763       3.24149122      22.29206790        3       0.00000000      -0.00001977      -0.00006141      -0.06995618
Pt       8.42164153       3.24149129      22.29206804        3       0.00000000       0.00165108       0.01906115      -0.07510451
Pt       4.21082092       5.67260997      22.29206741        3       0.00000000      -0.01734527      -0.00824042      -0.07475479
Pt       7.01803486       5.67261038      22.29206784        3       0.00000000       0.01405592      -0.00943412      -0.07312963
Pt       9.82524821       5.67261064      22.29206811        3       0.00000000       0.00000891      -0.00059209      -0.04375799
Pt      -0.00000055       1.62074564      24.58417373        2       0.00000000       0.02769428      -0.01637160       0.00765560
Pt       2.80721438       1.62074544      24.58417388        2       0.00000000      -0.02747762      -0.01669458       0.00772115
Pt       5.61442780       1.62074536      24.58417376        2       0.00000000      -0.00270853      -0.02514091      -0.08288438
Pt       1.40360636       4.05186448      24.58417388        2       0.00000000      -0.00630840      -0.16493203       0.23292506
Pt       4.21082089       4.05186396      24.58417385        2       0.00000000      -0.02068898       0.01523178      -0.08224304
Pt       7.01803505       4.05186407      24.58417401        2       0.00000000       0.02335280       0.01086439      -0.08228948
Pt       2.80721273       6.48298345      24.58417382        2       0.00000000       0.14850146       0.07854857       0.23467429
Pt       5.61442806       6.48298330      24.58417394        2       0.00000000      -0.00015861       0.03207351       0.00883155
Pt       8.42164223       6.48298339      24.58417374        2       0.00000000      -0.14216149       0.08981696       0.23452786
Pt      -0.03217161      -0.01841320      26.93918620        1       0.00000000      -0.01293526      -0.00989428      -0.00885209
Pt       2.83949954      -0.01834814      26.93920392        1       0.00000000       0.01522183      -0.00576799      -0.00888282
Pt       5.61414043      -0.00068828      26.92111751        1       0.00000000       0.00185997      -0.00979243      -0.01550231
Pt       1.40355366       2.46996829      26.93820890        1       0.00000000      -0.00230251       0.01601556      -0.00952070
Pt       4.22865970       2.44345060      26.90192350        1       0.00000000      -0.01541719      -0.00962683       0.01659271
Pt       6.99860377       2.44060318      26.90191623        1       0.00000000       0.01675189      -0.00708139       0.01658654
Pt       2.80677472       4.86369980      26.92137036        1       0.00000000      -0.01031953       0.00236802      -0.01656948
Pt       5.61607244       4.84056883      26.90211195        1       0.00000000      -0.00145276       0.02049017       0.01610936
Pt       8.42238484       4.86318963      26.92136686        1       0.00000000       0.00860374       0.00545123      -0.01656213
C        1.40357755       0.80990223      28.72973450        0       1.00000000      -0.00016216       0.00277201      -0.04444069
H        0.50872496       0.28547655      29.12477751        0       0.00000000      -0.01687325      -0.01032698       0.02338170
H        1.39617185       1.84835082      29.12211288        0       0.00000000      -0.00001040       0.01427668       0.02082687
H        2.30582353       0.29832394      29.12477850        0       0.00000000       0.01700704      -0.01064842       0.02334854
