40
Lattice="8.421641763931781 0.0 0.0 4.2108208819658905 7.293355709136913 0.0 0.0 0.0 46.87624170604845" Properties=species:S:1:pos:R:3:tags:I:1:initial_magmoms:R:1:forces:R:3 charge=0 spin=0 energy=-205.99792029208862 free_energy=-205.99792029208862 stress="0.009844351559877396 1.1494753948682046e-07 4.993735558400658e-08 1.1494753948682046e-07 0.009838673286139965 3.339071781738312e-06 4.993735558400658e-08 3.339071781738312e-06 -0.00029698957223445177" pbc="T T T"
Pt      -0.00000012      -0.00000004      19.95723457        4       0.00000000      -0.00074690      -0.00203226       0.01783360
Pt       2.80721395      -0.00000016      19.95723462        4       0.00000000       0.00213449       0.00033230       0.01780506
Pt       5.61442787      -0.00000009      19.95723469        4       0.00000000       0.00167807       0.00713941       0.00676726
Pt       1.40360721       2.43111844      19.95723450        4       0.00000000      -0.00136671       0.00162485       0.01789569
Pt       4.21082082       2.43111841      19.95723461        4       0.00000000       0.00082731      -0.00051270       0.01734650
Pt       7.01803480       2.43111847      19.95723446        4       0.00000000       0.00002316       0.00090322       0.01735502
Pt       2.80721415       4.86223736      19.95723430        4       0.00000000       0.00551374      -0.00510838       0.00672356
Pt       5.61442796       4.86223738      19.95723451        4       0.00000000      -0.00082702      -0.00045041       0.01725078
Pt       8.42164141       4.86223712      19.95723445        4       0.00000000      -0.00719770      -0.00223838       0.00670795
Pt       1.40360727       0.81037260      22.29206796        3       0.00000000       0.00000221       0.00001263      -0.04305131
Pt       4.21082131       0.81037250      22.29206795        3       0.00000000       0.01558429      -0.01115325      -0.07488976
Pt       7.01803474       0.81037257      22.29206787        3       0.00000000      -0.01506987      -0.00765177      -0.07307901
Pt       2.80721448       3.24149122      22.29206776        3       0.00000000       0.00107770       0.01676928      -0.07339519
Pt       5.61442763       3.24149122      22.29206790        3       0.00000000      -0.00001922      -0.00006156      -0.06995599
Pt       8.42164153       3.24149129      22.29206804        3       0.00000000       0.00165123       0.01906154      -0.07510512
Pt       4.21082092       5.67260997      22.29206741        3       0.00000000      -0.01734507      -0.00824042      -0.07475455
Pt       7.01803486       5.67261038      22.29206784        3       0.00000000       0.01405653      -0.00943458      -0.07312983
Pt       9.82524821       5.67261064      22.29206811        3       0.00000000       0.00000931      -0.00059198      -0.04375826
Pt      -0.00000055       1.62074564      24.58417373        2       0.00000000       0.02769446      -0.01637352       0.00765699
Pt       2.80721438       1.62074544      24.58417388        2       0.00000000      -0.02747752      -0.01669657       0.00772423
Pt       5.61442780       1.62074536      24.58417376        2       0.00000000      -0.00270863      -0.02514056      -0.08288358
Pt       1.40360636       4.05186448      24.58417388        2       0.00000000      -0.00630671      -0.16493082       0.23292753
Pt       4.21082089       4.05186396      24.58417385        2       0.00000000      -0.02069077       0.01523301      -0.08223910
Pt       7.01803505       4.05186407      24.58417401        2       0.00000000       0.02335225       0.01086443      -0.08228925
Pt       2.80721273       6.48298345      24.58417382        2       0.00000000       0.14850375       0.07854776       0.23468070
Pt       5.61442806       6.48298330      24.58417394        2       0.00000000      -0.00015934       0.03207525       0.00883720
Pt       8.42164223       6.48298339      24.58417374        2       0.00000000      -0.14216360       0.08981825       0.23453192
Pt      -0.03217141      -0.01841285      26.93918746        1       0.00000000      -0.01293755      -0.00989888      -0.00886155
Pt       2.83949950      -0.01834808      26.93920447        1       0.00000000       0.01522617      -0.00576975      -0.00889395
Pt       5.61414046      -0.00068843      26.92111756        1       0.00000000       0.00185931      -0.00979398      -0.01550204
Pt       1.40355381       2.46996830      26.93820946        1       0.00000000      -0.00230189       0.01601800      -0.00952161
Pt       4.22865942       2.44345034      26.90192322        1       0.00000000      -0.01541713      -0.00962544       0.01659202
Pt       6.99860409       2.44060303      26.90191643        1       0.00000000       0.01674861      -0.00708012       0.01658640
Pt       2.80677428       4.86369972      26.92137069        1       0.00000000      -0.01031887       0.00236997      -0.01657915
Pt       5.61607249       4.84056907      26.90211195        1       0.00000000      -0.00145356       0.02049058       0.01610855
Pt       8.42238486       4.86318973      26.92136704        1       0.00000000       0.00860400       0.00545297      -0.01656225
C        1.40357740       0.80990248      28.72973402        0       1.00000000      -0.00016108       0.00276990      -0.04443862
H        2.30582358       0.29832407      29.12477790        0       0.00000000       0.01700389      -0.01064705       0.02334924
H        0.50872470       0.28547681      29.12477740        0       0.00000000      -0.01687182      -0.01032792       0.02338384
H        1.39617161       1.84835104      29.12211182        0       0.00000000      -0.00000966       0.01427680       0.02082636
