40
Lattice="8.421641763931781 0.0 0.0 4.2108208819658905 7.293355709136913 0.0 0.0 0.0 46.87624170604845" Properties=species:S:1:pos:R:3:tags:I:1:initial_magmoms:R:1:forces:R:3 charge=0 spin=0 energy=-205.99752547092163 free_energy=-205.99752547092163 stress="0.009939823299646378 2.680090801732149e-06 1.2738369150611106e-06 2.680090801732149e-06 0.009873715229332447 2.7366793801775202e-05 1.2738369150611106e-06 2.7366793801775202e-05 -0.00019462790805846453" pbc="T T T"
Pt      -0.00000012      -0.00000004      19.95723457        4       0.00000000      -0.00066290      -0.00189823       0.01795705
Pt       2.80721395      -0.00000016      19.95723462        4       0.00000000       0.00190261      -0.00013946       0.01793740
Pt       5.61442787      -0.00000009      19.95723469        4       0.00000000       0.00134849       0.00572213       0.00761648
Pt       1.40360721       2.43111844      19.95723450        4       0.00000000      -0.00103313       0.00121323       0.01817113
Pt       4.21082082       2.43111841      19.95723461        4       0.00000000       0.00081126      -0.00004376       0.01766810
Pt       7.01803480       2.43111847      19.95723446        4       0.00000000      -0.00027932       0.00054136       0.01748411
Pt       2.80721415       4.86223736      19.95723430        4       0.00000000       0.00619258      -0.00492687       0.00631485
Pt       5.61442796       4.86223738      19.95723451        4       0.00000000      -0.00026883      -0.00064020       0.01707618
Pt       8.42164141       4.86223712      19.95723445        4       0.00000000      -0.00754732      -0.00274843       0.00634756
Pt       1.40360727       0.81037260      22.29206796        3       0.00000000       0.00013826      -0.00008906      -0.04215718
Pt       4.21082131       0.81037250      22.29206795        3       0.00000000       0.01394381      -0.01241944      -0.07435765
Pt       7.01803474       0.81037257      22.29206787        3       0.00000000      -0.01470670      -0.00891700      -0.07064264
Pt       2.80721448       3.24149122      22.29206776        3       0.00000000       0.00067039       0.01706154      -0.07461102
Pt       5.61442763       3.24149122      22.29206790        3       0.00000000      -0.00018075      -0.00028908      -0.06611325
Pt       8.42164153       3.24149129      22.29206804        3       0.00000000       0.00235712       0.01788894      -0.07784180
Pt       4.21082092       5.67260997      22.29206741        3       0.00000000      -0.01742866      -0.00790162      -0.07519969
Pt       7.01803486       5.67261038      22.29206784        3       0.00000000       0.01516391      -0.01014266      -0.07215638
Pt       9.82524821       5.67261064      22.29206811        3       0.00000000      -0.00014799      -0.00548742      -0.04588262
Pt      -0.00000055       1.62074564      24.58417373        2       0.00000000       0.02433684      -0.01620590       0.02340596
Pt       2.80721438       1.62074544      24.58417388        2       0.00000000      -0.01910942      -0.02607300       0.02359678
Pt       5.61442780       1.62074536      24.58417376        2       0.00000000       0.00333745      -0.00917854      -0.06887622
Pt       1.40360636       4.05186448      24.58417388        2       0.00000000      -0.00282060      -0.15751119       0.20928836
Pt       4.21082089       4.05186396      24.58417385        2       0.00000000      -0.01124392       0.00423840      -0.06835084
Pt       7.01803505       4.05186407      24.58417401        2       0.00000000       0.00704398       0.01082235      -0.06851917
Pt       2.80721273       6.48298345      24.58417382        2       0.00000000       0.15852261       0.09195611       0.23876724
Pt       5.61442806       6.48298330      24.58417394        2       0.00000000      -0.00559686       0.03328968       0.03188125
Pt       8.42164223       6.48298339      24.58417374        2       0.00000000      -0.15598455       0.09688132       0.23848179
Pt      -0.03469174      -0.00897942      26.94595506        1       0.00000000       0.02040025      -0.01972680      -0.01104576
Pt       2.83415009      -0.02280279      26.94601458        1       0.00000000       0.01101840       0.02809675      -0.01674698
Pt       5.61112632       0.00207720      26.91709397        1       0.00000000       0.01400465      -0.00827255      -0.00005405
Pt       1.41103328       2.47696586      26.93590982        1       0.00000000      -0.02873839       0.00333735      -0.01917792
Pt       4.23082634       2.43877981      26.90739508        1       0.00000000      -0.01834550       0.02002643      -0.01183440
Pt       7.00276821       2.44725211      26.90746211        1       0.00000000      -0.00663409      -0.02293923      -0.01170796
Pt       2.80941470       4.86839949      26.91769175        1       0.00000000      -0.01453009      -0.00298159       0.00079595
Pt       5.60936406       4.84333899      26.90746476        1       0.00000000       0.02441167       0.00718593      -0.01125762
Pt       8.42227848       4.86289462      26.91767595        1       0.00000000       0.00193875       0.01910479       0.00111478
C        1.40359278       0.79706505      28.73623032        0       1.00000000       0.00085606      -0.01299208       0.01571855
H        0.49571842       0.30151612      29.14208266        0       0.00000000       0.01366714      -0.00727122      -0.00473124
H        1.42648494       1.83906510      29.12215039        0       0.00000000      -0.00898618      -0.01998535      -0.01928519
H        2.29215283       0.26444449      29.13815839        0       0.00000000      -0.00782108       0.00141418       0.00092597
