40
Lattice="8.421641763931781 0.0 0.0 4.2108208819658905 7.293355709136913 0.0 0.0 0.0 46.87624170604845" Properties=species:S:1:pos:R:3:tags:I:1:initial_magmoms:R:1:forces:R:3 charge=0 spin=0 energy=-206.89720084018433 free_energy=-206.89720084018433 stress="0.010329029522836208 3.282519855929422e-06 5.879402920072607e-07 3.282519855929422e-06 0.010298676788806915 -8.166422048816457e-06 5.879402920072607e-07 -8.166422048816457e-06 -0.0004112723108846694" pbc="T T T"
Pt      -0.00000012      -0.00000004      19.95723457        4       0.00000000      -0.00368286       0.00442090       0.01728445
Pt       2.80721395      -0.00000016      19.95723462        4       0.00000000       0.00206794       0.00368954       0.01933277
Pt       5.61442787      -0.00000009      19.95723469        4       0.00000000      -0.00001145      -0.00025224      -0.03716875
Pt       1.40360721       2.43111844      19.95723450        4       0.00000000      -0.00023766      -0.00011638       0.01300035
Pt       4.21082082       2.43111841      19.95723461        4       0.00000000      -0.00218055      -0.00458194       0.01729088
Pt       7.01803480       2.43111847      19.95723446        4       0.00000000       0.00179193      -0.00316934       0.01948826
Pt       2.80721415       4.86223736      19.95723430        4       0.00000000      -0.00423149      -0.00000667       0.01912431
Pt       5.61442796       4.86223738      19.95723451        4       0.00000000      -0.00007371       0.00011633       0.02534043
Pt       8.42164141       4.86223712      19.95723445        4       0.00000000       0.00512441       0.00082937       0.01726147
Pt       1.40360727       0.81037260      22.29206796        3       0.00000000      -0.00305353       0.00200841      -0.00365411
Pt       4.21082131       0.81037250      22.29206795        3       0.00000000       0.06651989      -0.03598306      -0.15096992
Pt       7.01803474       0.81037257      22.29206787        3       0.00000000      -0.06567173      -0.03890127      -0.15000688
Pt       2.80721448       3.24149122      22.29206776        3       0.00000000      -0.00120524      -0.00335938      -0.00255705
Pt       5.61442763       3.24149122      22.29206790        3       0.00000000       0.00344789      -0.00974881      -0.06527762
Pt       8.42164153       3.24149129      22.29206804        3       0.00000000       0.00265474       0.00145326      -0.00270029
Pt       4.21082092       5.67260997      22.29206741        3       0.00000000      -0.01238918       0.00279649      -0.06729310
Pt       7.01803486       5.67261038      22.29206784        3       0.00000000       0.00699839       0.01038524      -0.06664633
Pt       9.82524821       5.67261064      22.29206811        3       0.00000000      -0.00243452       0.07536937      -0.14882238
Pt      -0.00000055       1.62074564      24.58417373        2       0.00000000       0.20803076       0.12327767       0.23694837
Pt       2.80721438       1.62074544      24.58417388        2       0.00000000      -0.20485130       0.12942702       0.23635396
Pt       5.61442780       1.62074536      24.58417376        2       0.00000000       0.00590277      -0.01585643      -0.05287628
Pt       1.40360636       4.05186448      24.58417388        2       0.00000000      -0.00092050      -0.24493304       0.23799248
Pt       4.21082089       4.05186396      24.58417385        2       0.00000000      -0.00313588      -0.01126840      -0.01939201
Pt       7.01803505       4.05186407      24.58417401        2       0.00000000       0.00864877      -0.01272366      -0.01796620
Pt       2.80721273       6.48298345      24.58417382        2       0.00000000      -0.01298406      -0.00018784      -0.05795341
Pt       5.61442806       6.48298330      24.58417394        2       0.00000000       0.00225712       0.00743884      -0.03348683
Pt       8.42164223       6.48298339      24.58417374        2       0.00000000       0.01463629       0.00205377      -0.06007178
Pt      -0.00121444       0.00461397      26.89241246        1       0.00000000      -0.01318942      -0.02790344       0.02113239
Pt       2.81355751       0.00403871      26.89212135        1       0.00000000       0.00170406      -0.02801810       0.02194034
Pt       5.61587508      -0.00799689      26.91197420        1       0.00000000       0.00511283       0.01056292       0.00428059
Pt       1.40487326       2.42189138      27.13610091        1       0.00000000       0.00133421       0.03554064       0.02417164
Pt       4.21493934       2.42227044      26.89856718        1       0.00000000       0.00381354       0.01568198      -0.00262480
Pt       7.01699664       2.42406608      26.90000170        1       0.00000000      -0.00053584       0.01132794      -0.00856236
Pt       2.80934596       4.85635527      26.89468460        1       0.00000000      -0.00575691       0.01571279       0.00592744
Pt       5.61807832       4.86695203      26.90443162        1       0.00000000      -0.00472428      -0.02948266       0.00347541
Pt       8.42718534       4.85639105      26.89570495        1       0.00000000      -0.00094856       0.01727613       0.00357522
C        1.40431916       2.43267586      29.21941019        0       1.00000000       0.00251557       0.01773924       0.01781278
H        0.49609472       2.95302150      29.55985196        0       0.00000000       0.03483728       0.00878100      -0.00503979
H        2.31152922       2.95557638      29.55831880        0       0.00000000      -0.03256926       0.01180532      -0.00126628
H        1.40663410       1.39122655      29.57044337        0       0.00000000      -0.00261018      -0.04120150      -0.00739744
