40
Lattice="8.421641763931781 0.0 0.0 4.2108208819658905 7.293355709136913 0.0 0.0 0.0 46.87624170604845" Properties=species:S:1:pos:R:3:tags:I:1:initial_magmoms:R:1:forces:R:3 charge=0 spin=0 energy=-205.99759222812378 free_energy=-205.99759222812378 stress="0.00989468488842249 -1.5957114385400928e-07 -2.6000654429481074e-07 -1.5957114385400928e-07 0.009878192096948624 6.4968644437612966e-06 -2.6000654429481074e-07 6.4968644437612966e-06 -0.0002135097311111167" pbc="T T T"
Pt      -0.00000012      -0.00000004      19.95723457        4       0.00000000      -0.00088271      -0.00197856       0.01802883
Pt       2.80721395      -0.00000016      19.95723462        4       0.00000000       0.00214055       0.00009886       0.01799283
Pt       5.61442787      -0.00000009      19.95723469        4       0.00000000       0.00151858       0.00669162       0.00686627
Pt       1.40360721       2.43111844      19.95723450        4       0.00000000      -0.00120274       0.00167231       0.01812137
Pt       4.21082082       2.43111841      19.95723461        4       0.00000000       0.00093772      -0.00036155       0.01732987
Pt       7.01803480       2.43111847      19.95723446        4       0.00000000      -0.00013159       0.00093970       0.01732292
Pt       2.80721415       4.86223736      19.95723430        4       0.00000000       0.00551222      -0.00489965       0.00654192
Pt       5.61442796       4.86223738      19.95723451        4       0.00000000      -0.00074783      -0.00063060       0.01715956
Pt       8.42164141       4.86223712      19.95723445        4       0.00000000      -0.00700479      -0.00229485       0.00656669
Pt       1.40360727       0.81037260      22.29206796        3       0.00000000       0.00001818      -0.00004270      -0.04261826
Pt       4.21082131       0.81037250      22.29206795        3       0.00000000       0.01470272      -0.01139195      -0.07537712
Pt       7.01803474       0.81037257      22.29206787        3       0.00000000      -0.01507373      -0.00763501      -0.07324945
Pt       2.80721448       3.24149122      22.29206776        3       0.00000000       0.00123447       0.01682902      -0.07409378
Pt       5.61442763       3.24149122      22.29206790        3       0.00000000      -0.00005014      -0.00009528      -0.06899946
Pt       8.42164153       3.24149129      22.29206804        3       0.00000000       0.00211253       0.01838153      -0.07605562
Pt       4.21082092       5.67260997      22.29206741        3       0.00000000      -0.01708398      -0.00766387      -0.07548364
Pt       7.01803486       5.67261038      22.29206784        3       0.00000000       0.01409989      -0.00971982      -0.07351255
Pt       9.82524821       5.67261064      22.29206811        3       0.00000000       0.00005742      -0.00138236      -0.04277202
Pt      -0.00000055       1.62074564      24.58417373        2       0.00000000       0.02972081      -0.01758400       0.02339638
Pt       2.80721438       1.62074544      24.58417388        2       0.00000000      -0.02854882      -0.01975352       0.02359913
Pt       5.61442780       1.62074536      24.58417376        2       0.00000000       0.00033990      -0.02062558      -0.07634500
Pt       1.40360636       4.05186448      24.58417388        2       0.00000000      -0.00658997      -0.16434047       0.23113807
Pt       4.21082089       4.05186396      24.58417385        2       0.00000000      -0.01846609       0.01059417      -0.07644400
Pt       7.01803505       4.05186407      24.58417401        2       0.00000000       0.01794608       0.01160012      -0.07652569
Pt       2.80721273       6.48298345      24.58417382        2       0.00000000       0.15039721       0.08006010       0.23804069
Pt       5.61442806       6.48298330      24.58417394        2       0.00000000      -0.00103983       0.03552198       0.02526770
Pt       8.42164223       6.48298339      24.58417374        2       0.00000000      -0.14424559       0.09192964       0.23845610
Pt      -0.03727394      -0.01801518      26.94195025        1       0.00000000       0.03476208       0.00275004      -0.01448851
Pt       2.84187643      -0.02240026      26.94213760        1       0.00000000      -0.01965598       0.02888535      -0.01491014
Pt       5.61492490       0.00026646      26.92121762        1       0.00000000      -0.00409707      -0.01153164      -0.01439510
Pt       1.40606889       2.47521654      26.93974003        1       0.00000000      -0.01515237      -0.02912176      -0.01639714
Pt       4.23083913       2.44093103      26.90438754        1       0.00000000      -0.02683729       0.00037600       0.00417927
Pt       6.99996914       2.44429444      26.90439587        1       0.00000000       0.01332392      -0.02283482       0.00418063
Pt       2.80681140       4.86278934      26.92133481        1       0.00000000      -0.00796031       0.01063927      -0.01395628
Pt       5.61246157       4.84068228      26.90437459        1       0.00000000       0.01321041       0.02326576       0.00433565
Pt       8.42142073       4.86377042      26.92132608        1       0.00000000       0.01237794       0.00297273      -0.01391313
C        1.40381103       0.80705835      28.72621490        0       1.00000000       0.00036549      -0.00303084       0.02544219
H        1.38121064       1.84599197      29.12229101        0       0.00000000       0.00535510      -0.02780578      -0.01114113
H        2.31400366       0.30898818      29.12638602        0       0.00000000      -0.02515243       0.00607357      -0.00632157
H        0.51656836       0.26954242      29.12676916        0       0.00000000       0.01979011       0.01544286      -0.00696654
