40
Lattice="8.421641763931781 0.0 0.0 4.2108208819658905 7.293355709136913 0.0 0.0 0.0 46.87624170604845" Properties=species:S:1:pos:R:3:tags:I:1:initial_magmoms:R:1:forces:R:3 charge=0 spin=0 energy=-206.89720084018433 free_energy=-206.89720084018433 stress="0.010328945703804493 3.2895752610784257e-06 5.875684223610733e-07 3.2895752610784257e-06 0.010298654437065125 -8.125864951580297e-06 5.875684223610733e-07 -8.125864951580297e-06 -0.0004114147450309247" pbc="T T T"
Pt      -0.00000012      -0.00000004      19.95723457        4       0.00000000      -0.00368268       0.00442082       0.01728445
Pt       2.80721395      -0.00000016      19.95723462        4       0.00000000       0.00206783       0.00368972       0.01933256
Pt       5.61442787      -0.00000009      19.95723469        4       0.00000000      -0.00001157      -0.00025358      -0.03716828
Pt       1.40360721       2.43111844      19.95723450        4       0.00000000      -0.00023764      -0.00011511       0.01300128
Pt       4.21082082       2.43111841      19.95723461        4       0.00000000      -0.00218030      -0.00458195       0.01729052
Pt       7.01803480       2.43111847      19.95723446        4       0.00000000       0.00179162      -0.00316898       0.01948795
Pt       2.80721415       4.86223736      19.95723430        4       0.00000000      -0.00423213      -0.00000623       0.01912340
Pt       5.61442796       4.86223738      19.95723451        4       0.00000000      -0.00007342       0.00011579       0.02534041
Pt       8.42164141       4.86223712      19.95723445        4       0.00000000       0.00512508       0.00082987       0.01726056
Pt       1.40360727       0.81037260      22.29206796        3       0.00000000      -0.00305374       0.00200967      -0.00365823
Pt       4.21082131       0.81037250      22.29206795        3       0.00000000       0.06651922      -0.03598289      -0.15097526
Pt       7.01803474       0.81037257      22.29206787        3       0.00000000      -0.06567141      -0.03890124      -0.15001141
Pt       2.80721448       3.24149122      22.29206776        3       0.00000000      -0.00120459      -0.00335998      -0.00255694
Pt       5.61442763       3.24149122      22.29206790        3       0.00000000       0.00344803      -0.00975008      -0.06527507
Pt       8.42164153       3.24149129      22.29206804        3       0.00000000       0.00265466       0.00145257      -0.00270039
Pt       4.21082092       5.67260997      22.29206741        3       0.00000000      -0.01238823       0.00279902      -0.06729365
Pt       7.01803486       5.67261038      22.29206784        3       0.00000000       0.00699691       0.01038759      -0.06664596
Pt       9.82524821       5.67261064      22.29206811        3       0.00000000      -0.00243506       0.07537077      -0.14881283
Pt      -0.00000055       1.62074564      24.58417373        2       0.00000000       0.20803910       0.12329116       0.23696871
Pt       2.80721438       1.62074544      24.58417388        2       0.00000000      -0.20486213       0.12944351       0.23636742
Pt       5.61442780       1.62074536      24.58417376        2       0.00000000       0.00590315      -0.01585068      -0.05286417
Pt       1.40360636       4.05186448      24.58417388        2       0.00000000      -0.00092233      -0.24493967       0.23797365
Pt       4.21082089       4.05186396      24.58417385        2       0.00000000      -0.00313374      -0.01127597      -0.01940949
Pt       7.01803505       4.05186407      24.58417401        2       0.00000000       0.00864759      -0.01272734      -0.01798023
Pt       2.80721273       6.48298345      24.58417382        2       0.00000000      -0.01300879      -0.00019668      -0.05799263
Pt       5.61442806       6.48298330      24.58417394        2       0.00000000       0.00225709       0.00741901      -0.03350449
Pt       8.42164223       6.48298339      24.58417374        2       0.00000000       0.01466422       0.00204237      -0.06011898
Pt      -0.00122628       0.00459767      26.89239321        1       0.00000000      -0.01312019      -0.02781547       0.02120399
Pt       2.81357205       0.00402295      26.89210149        1       0.00000000       0.00161484      -0.02793665       0.02202234
Pt       5.61587452      -0.00799268      26.91197493        1       0.00000000       0.00512329       0.01055456       0.00427878
Pt       1.40487240       2.42188938      27.13611414        1       0.00000000       0.00133282       0.03555689       0.02406335
Pt       4.21493741       2.42227518      26.89857177        1       0.00000000       0.00380417       0.01563865      -0.00263460
Pt       7.01699791       2.42407421      26.90000625        1       0.00000000      -0.00052173       0.01126780      -0.00857281
Pt       2.80934663       4.85635154      26.89467804        1       0.00000000      -0.00577600       0.01570744       0.00595562
Pt       5.61807670       4.86693776      26.90443788        1       0.00000000      -0.00471903      -0.02943380       0.00346401
Pt       8.42718413       4.85639015      26.89570007        1       0.00000000      -0.00093018       0.01725695       0.00359804
C        1.40432071       2.43273344      29.21942009        0       1.00000000       0.00252632       0.01750960       0.01769658
H        2.31152635       2.95564090      29.55831674        0       0.00000000      -0.03250550       0.01185242      -0.00121883
H        1.40664444       1.39128046      29.57044465        0       0.00000000      -0.00260266      -0.04116662      -0.00732413
H        0.49609018       2.95306726      29.55985358        0       0.00000000       0.03475718       0.00884650      -0.00499536
