40
Lattice="8.421641763931781 0.0 0.0 4.2108208819658905 7.293355709136913 0.0 0.0 0.0 46.87624170604845" Properties=species:S:1:pos:R:3:tags:I:1:initial_magmoms:R:1:forces:R:3 charge=0 spin=0 energy=-205.99759222812378 free_energy=-205.99759222812378 stress="0.009894718416035175 -1.59139389666052e-07 -2.6383980866739876e-07 -1.59139389666052e-07 0.00987822562456131 6.492497050203383e-06 -2.6383980866739876e-07 6.492497050203383e-06 -0.00021348492009565234" pbc="T T T"
Pt      -0.00000012      -0.00000004      19.95723457        4       0.00000000      -0.00088241      -0.00197840       0.01802866
Pt       2.80721395      -0.00000016      19.95723462        4       0.00000000       0.00214030       0.00009882       0.01799270
Pt       5.61442787      -0.00000009      19.95723469        4       0.00000000       0.00151855       0.00669182       0.00686618
Pt       1.40360721       2.43111844      19.95723450        4       0.00000000      -0.00120294       0.00167205       0.01812115
Pt       4.21082082       2.43111841      19.95723461        4       0.00000000       0.00093754      -0.00036180       0.01732964
Pt       7.01803480       2.43111847      19.95723446        4       0.00000000      -0.00013143       0.00093940       0.01732300
Pt       2.80721415       4.86223736      19.95723430        4       0.00000000       0.00551242      -0.00489963       0.00654186
Pt       5.61442796       4.86223738      19.95723451        4       0.00000000      -0.00074795      -0.00063037       0.01715939
Pt       8.42164141       4.86223712      19.95723445        4       0.00000000      -0.00700458      -0.00229475       0.00656663
Pt       1.40360727       0.81037260      22.29206796        3       0.00000000       0.00001802      -0.00004252      -0.04261658
Pt       4.21082131       0.81037250      22.29206795        3       0.00000000       0.01470340      -0.01139216      -0.07537764
Pt       7.01803474       0.81037257      22.29206787        3       0.00000000      -0.01507438      -0.00763466      -0.07324859
Pt       2.80721448       3.24149122      22.29206776        3       0.00000000       0.00123404       0.01682975      -0.07409362
Pt       5.61442763       3.24149122      22.29206790        3       0.00000000      -0.00004965      -0.00009506      -0.06900002
Pt       8.42164153       3.24149129      22.29206804        3       0.00000000       0.00211300       0.01838189      -0.07605531
Pt       4.21082092       5.67260997      22.29206741        3       0.00000000      -0.01708471      -0.00766357      -0.07548406
Pt       7.01803486       5.67261038      22.29206784        3       0.00000000       0.01410009      -0.00971972      -0.07351281
Pt       9.82524821       5.67261064      22.29206811        3       0.00000000       0.00005735      -0.00138221      -0.04277467
Pt      -0.00000055       1.62074564      24.58417373        2       0.00000000       0.02972088      -0.01758299       0.02340164
Pt       2.80721438       1.62074544      24.58417388        2       0.00000000      -0.02855175      -0.01975334       0.02360390
Pt       5.61442780       1.62074536      24.58417376        2       0.00000000       0.00034231      -0.02062313      -0.07633366
Pt       1.40360636       4.05186448      24.58417388        2       0.00000000      -0.00659000      -0.16434938       0.23113762
Pt       4.21082089       4.05186396      24.58417385        2       0.00000000      -0.01846094       0.01059254      -0.07643552
Pt       7.01803505       4.05186407      24.58417401        2       0.00000000       0.01793945       0.01159621      -0.07651450
Pt       2.80721273       6.48298345      24.58417382        2       0.00000000       0.15040061       0.08006403       0.23803881
Pt       5.61442806       6.48298330      24.58417394        2       0.00000000      -0.00103924       0.03552075       0.02527013
Pt       8.42164223       6.48298339      24.58417374        2       0.00000000      -0.14424899       0.09193318       0.23845457
Pt      -0.03727197      -0.01801515      26.94195193        1       0.00000000       0.03474315       0.00274401      -0.01449462
Pt       2.84187481      -0.02239953      26.94213869        1       0.00000000      -0.01963962       0.02887847      -0.01491747
Pt       5.61492492       0.00026476      26.92121738        1       0.00000000      -0.00409796      -0.01151242      -0.01439705
Pt       1.40606861       2.47521450      26.93974270        1       0.00000000      -0.01514673      -0.02910670      -0.01641113
Pt       4.23083664       2.44092949      26.90438833        1       0.00000000      -0.02681321       0.00038894       0.00417501
Pt       6.99997119       2.44429295      26.90439730        1       0.00000000       0.01329610      -0.02282273       0.00416604
Pt       2.80681031       4.86279032      26.92133426        1       0.00000000      -0.00794598       0.01062713      -0.01394750
Pt       5.61246100       4.84068484      26.90437648        1       0.00000000       0.01321291       0.02323663       0.00432263
Pt       8.42142237       4.86377068      26.92132473        1       0.00000000       0.01236412       0.00296866      -0.01390410
C        1.40381140       0.80705875      28.72621819        0       1.00000000       0.00034330      -0.00303494       0.02547353
H        2.31400746       0.30899283      29.12638932        0       0.00000000      -0.02517430       0.00608507      -0.00632666
H        0.51656973       0.26953811      29.12677273        0       0.00000000       0.01982856       0.01546475      -0.00698200
H        1.38120496       1.84599351      29.12229414        0       0.00000000       0.00536062      -0.02783342      -0.01114549
