40
Lattice="8.421641763931781 0.0 0.0 4.2108208819658905 7.293355709136913 0.0 0.0 0.0 46.87624170604845" Properties=species:S:1:pos:R:3:tags:I:1:initial_magmoms:R:1:forces:R:3 charge=0 spin=0 energy=-206.8962814981433 free_energy=-206.8962814981433 stress="0.010364445857703686 4.819151655510723e-08 -4.041313950153835e-09 4.819151655510723e-08 0.010364373214542866 1.140221286277665e-07 -4.041313950153835e-09 1.140221286277665e-07 -0.00032731681130826473" pbc="T T T"
Pt      -0.00000012      -0.00000004      19.95723457        4       0.00000000      -0.00000203       0.00000186       0.01356396
Pt       2.80721395      -0.00000016      19.95723462        4       0.00000000      -0.00175251      -0.00508933       0.01698536
Pt       5.61442787      -0.00000009      19.95723469        4       0.00000000       0.00190862      -0.00339242       0.01938924
Pt       1.40360721       2.43111844      19.95723450        4       0.00000000      -0.00390312       0.00005399       0.01933807
Pt       4.21082082       2.43111841      19.95723461        4       0.00000000       0.00000142      -0.00000338       0.02549274
Pt       7.01803480       2.43111847      19.95723446        4       0.00000000       0.00529957       0.00100667       0.01697998
Pt       2.80721415       4.86223736      19.95723430        4       0.00000000      -0.00354973       0.00407519       0.01707578
Pt       5.61442796       4.86223738      19.95723451        4       0.00000000       0.00199523       0.00333424       0.01937940
Pt       8.42164141       4.86223712      19.95723445        4       0.00000000       0.00000412       0.00000728      -0.03659810
Pt       1.40360727       0.81037260      22.29206796        3       0.00000000      -0.00025232      -0.00409220      -0.00410183
Pt       4.21082131       0.81037250      22.29206795        3       0.00000000       0.00407578      -0.01125215      -0.06719252
Pt       7.01803474       0.81037257      22.29206787        3       0.00000000       0.00363040       0.00185709      -0.00412688
Pt       2.80721448       3.24149122      22.29206776        3       0.00000000      -0.01179937       0.00207084      -0.06696168
Pt       5.61442763       3.24149122      22.29206790        3       0.00000000       0.00772093       0.00918288      -0.06698448
Pt       8.42164153       3.24149129      22.29206804        3       0.00000000      -0.00167086       0.07535118      -0.14944208
Pt       4.21082092       5.67260997      22.29206741        3       0.00000000      -0.00338110       0.00220760      -0.00391450
Pt       7.01803486       5.67261038      22.29206784        3       0.00000000       0.06605972      -0.03624749      -0.14943215
Pt       9.82524821       5.67261064      22.29206811        3       0.00000000      -0.06438066      -0.03911277      -0.14943212
Pt      -0.00000055       1.62074564      24.58417373        2       0.00000000      -0.00123248      -0.24653062       0.25648096
Pt       2.80721438       1.62074544      24.58417388        2       0.00000000      -0.00792074      -0.00026578      -0.01631754
Pt       5.61442780       1.62074536      24.58417376        2       0.00000000       0.00407451      -0.00669262      -0.01632364
Pt       1.40360636       4.05186448      24.58417388        2       0.00000000      -0.02089271       0.00435269      -0.05072762
Pt       4.21082089       4.05186396      24.58417385        2       0.00000000       0.00378810       0.00690685      -0.01639850
Pt       7.01803505       4.05186407      24.58417401        2       0.00000000       0.01442424       0.01580441      -0.05084477
Pt       2.80721273       6.48298345      24.58417382        2       0.00000000       0.21398695       0.12225600       0.25656363
Pt       5.61442806       6.48298330      24.58417394        2       0.00000000      -0.21273144       0.12446169       0.25645360
Pt       8.42164223       6.48298339      24.58417374        2       0.00000000       0.00648399      -0.02012684      -0.05068994
Pt      -0.00000056       0.00011478      27.14586981        1       0.00000000      -0.00000539      -0.00015905      -0.01030682
Pt       2.81108690      -0.00380779      26.89463092        1       0.00000000      -0.01649703      -0.00185203       0.00678644
Pt       5.61365529      -0.00266778      26.89699409        1       0.00000000       0.01535492      -0.00103679       0.00589774
Pt       1.40168017       2.43314116      26.89696748        1       0.00000000      -0.00864546      -0.01281995       0.00563773
Pt       4.21082026       2.43113146      26.91158817        1       0.00000000      -0.00000862       0.00001915      -0.01660326
Pt       7.01939135       2.43640060      26.89458759        1       0.00000000       0.00987095      -0.01339102       0.00657185
Pt       2.80199105       4.86083357      26.89457820        1       0.00000000       0.00662950       0.01531782       0.00678460
Pt       5.61711795       4.86295639      26.89689845        1       0.00000000      -0.00670626       0.01393598       0.00559017
Pt       8.42164280       4.86225440      26.92089171        1       0.00000000       0.00002044       0.00002586      -0.02129988
C       -0.00000052      -0.00002824      29.22936016        0       1.00000000       0.00004329      -0.00006722      -0.02143419
H       -0.52093488       0.90589972      29.57130056        0       0.00000000      -0.00607065       0.00979683       0.00434246
H        1.04509409      -0.00192948      29.57108171        0       0.00000000       0.01142652       0.00015877       0.00471447
H       -0.52415889      -0.90425494      29.57086565        0       0.00000000      -0.00539680      -0.01005362       0.00510446
