40
Lattice="8.421641763931781 0.0 0.0 4.2108208819658905 7.293355709136913 0.0 0.0 0.0 46.87624170604845" Properties=species:S:1:pos:R:3:tags:I:1:initial_magmoms:R:1:forces:R:3 charge=0 spin=0 energy=-206.8963387186023 free_energy=-206.8963387186023 stress="0.010375114157795906 1.653668419976384e-07 -1.4913277279759996e-09 1.653668419976384e-07 0.01037495769560337 1.1997086346582364e-07 -1.4913277279759996e-09 1.1997086346582364e-07 -0.00028538506012409925" pbc="T T T"
Pt      -0.00000012      -0.00000004      19.95723457        4       0.00000000      -0.00000191      -0.00000021       0.01342959
Pt       2.80721395      -0.00000016      19.95723462        4       0.00000000      -0.00170411      -0.00512597       0.01724961
Pt       5.61442787      -0.00000009      19.95723469        4       0.00000000       0.00187968      -0.00345362       0.01955345
Pt       1.40360721       2.43111844      19.95723450        4       0.00000000      -0.00394116       0.00010791       0.01950245
Pt       4.21082082       2.43111841      19.95723461        4       0.00000000       0.00000098      -0.00000461       0.02537376
Pt       7.01803480       2.43111847      19.95723446        4       0.00000000       0.00530758       0.00106483       0.01724573
Pt       2.80721415       4.86223736      19.95723430        4       0.00000000      -0.00360547       0.00405258       0.01733984
Pt       5.61442796       4.86223738      19.95723451        4       0.00000000       0.00206345       0.00334017       0.01954418
Pt       8.42164141       4.86223712      19.95723445        4       0.00000000       0.00000441       0.00001065      -0.03671074
Pt       1.40360727       0.81037260      22.29206796        3       0.00000000      -0.00031942      -0.00410256      -0.00433108
Pt       4.21082131       0.81037250      22.29206795        3       0.00000000       0.00402573      -0.01100018      -0.06739676
Pt       7.01803474       0.81037257      22.29206787        3       0.00000000       0.00366989       0.00179651      -0.00436218
Pt       2.80721448       3.24149122      22.29206776        3       0.00000000      -0.01155616       0.00198656      -0.06716521
Pt       5.61442763       3.24149122      22.29206790        3       0.00000000       0.00752949       0.00901236      -0.06719340
Pt       8.42164153       3.24149129      22.29206804        3       0.00000000      -0.00161531       0.07513046      -0.14874066
Pt       4.21082092       5.67260997      22.29206741        3       0.00000000      -0.00335463       0.00226287      -0.00416348
Pt       7.01803486       5.67261038      22.29206784        3       0.00000000       0.06583145      -0.03618684      -0.14872608
Pt       9.82524821       5.67261064      22.29206811        3       0.00000000      -0.06421027      -0.03895046      -0.14872967
Pt      -0.00000055       1.62074564      24.58417373        2       0.00000000      -0.00166493      -0.24032752       0.25727731
Pt       2.80721438       1.62074544      24.58417388        2       0.00000000      -0.01023561      -0.00211769      -0.01094230
Pt       5.61442780       1.62074536      24.58417376        2       0.00000000       0.00681531      -0.00780051      -0.01097274
Pt       1.40360636       4.05186448      24.58417388        2       0.00000000      -0.01816249       0.00310792      -0.04768854
Pt       4.21082089       4.05186396      24.58417385        2       0.00000000       0.00333978       0.00982894      -0.01109654
Pt       7.01803505       4.05186407      24.58417401        2       0.00000000       0.01199272       0.01407346      -0.04785541
Pt       2.80721273       6.48298345      24.58417382        2       0.00000000       0.20884818       0.11880922       0.25741696
Pt       5.61442806       6.48298330      24.58417394        2       0.00000000      -0.20716107       0.12179986       0.25727615
Pt       8.42164223       6.48298339      24.58417374        2       0.00000000       0.00621385      -0.01711597      -0.04760935
Pt       0.00000025       0.00019121      27.13942350        1       0.00000000      -0.00001312      -0.00021071       0.03354142
Pt       2.81150444      -0.00450938      26.89765533        1       0.00000000      -0.01623593       0.00285153      -0.00525826
Pt       5.61362296      -0.00327867      26.89933835        1       0.00000000       0.01408531       0.00314128      -0.00353305
Pt       1.40116735       2.43349005      26.89929215        1       0.00000000      -0.00439707      -0.01380811      -0.00371195
Pt       4.21082328       2.43114576      26.90936863        1       0.00000000      -0.00004204      -0.00001737      -0.01074070
Pt       7.01977535       2.43712740      26.89758030        1       0.00000000       0.00582721      -0.01553075      -0.00529227
Pt       2.80119274       4.86083737      26.89758572        1       0.00000000       0.01042583       0.01282250      -0.00526838
Pt       5.61765966       4.86325080      26.89919614        1       0.00000000      -0.00970206       0.01082351      -0.00371121
Pt       8.42164031       4.86225598      26.91873686        1       0.00000000       0.00005837       0.00008873      -0.01368058
C        0.00000031      -0.00005520      29.22571133        0       1.00000000       0.00003032       0.00008272      -0.02847007
H       -0.52246185      -0.90546339      29.56743284        0       0.00000000      -0.00190882      -0.00386261      -0.00026134
H       -0.52272357       0.90485169      29.56834339        0       0.00000000      -0.00264529       0.00402054      -0.00066927
H        1.04518832       0.00019023      29.56788616        0       0.00000000       0.00452749      -0.00059927      -0.00046938
