40
Lattice="8.421641763931781 0.0 0.0 4.2108208819658905 7.293355709136913 0.0 0.0 0.0 46.87624170604845" Properties=species:S:1:pos:R:3:tags:I:1:initial_magmoms:R:1:forces:R:3 charge=0 spin=0 energy=-206.8979542428943 free_energy=-206.8979542428943 stress="0.010357307270169258 -5.410798209481982e-08 -7.813820701585428e-09 -5.410798209481982e-08 0.010355479083955288 -2.876745156754623e-06 -7.813820701585428e-09 -2.876745156754623e-06 -0.0003519682213664055" pbc="T T T"
Pt      -0.00000012      -0.00000004      19.95723457        4       0.00000000       0.00000535       0.00003332       0.01322064
Pt       2.80721395      -0.00000016      19.95723462        4       0.00000000      -0.00193095      -0.00484236       0.01727442
Pt       5.61442787      -0.00000009      19.95723469        4       0.00000000       0.00198465      -0.00339495       0.01937488
Pt       1.40360721       2.43111844      19.95723450        4       0.00000000      -0.00387124      -0.00004950       0.01925052
Pt       4.21082082       2.43111841      19.95723461        4       0.00000000       0.00002795      -0.00001487       0.02528254
Pt       7.01803480       2.43111847      19.95723446        4       0.00000000       0.00510167       0.00069600       0.01720089
Pt       2.80721415       4.86223736      19.95723430        4       0.00000000      -0.00317561       0.00404662       0.01732745
Pt       5.61442796       4.86223738      19.95723451        4       0.00000000       0.00190171       0.00331461       0.01930054
Pt       8.42164141       4.86223712      19.95723445        4       0.00000000      -0.00000151      -0.00017305      -0.03670496
Pt       1.40360727       0.81037260      22.29206796        3       0.00000000      -0.00035232      -0.00342615      -0.00273267
Pt       4.21082131       0.81037250      22.29206795        3       0.00000000       0.00445869      -0.01138287      -0.06719185
Pt       7.01803474       0.81037257      22.29206787        3       0.00000000       0.00308912       0.00148089      -0.00275427
Pt       2.80721448       3.24149122      22.29206776        3       0.00000000      -0.01208489       0.00174953      -0.06724851
Pt       5.61442763       3.24149122      22.29206790        3       0.00000000       0.00758276       0.00947615      -0.06725698
Pt       8.42164153       3.24149129      22.29206804        3       0.00000000      -0.00184352       0.07541965      -0.15036438
Pt       4.21082092       5.67260997      22.29206741        3       0.00000000      -0.00275964       0.00180653      -0.00233383
Pt       7.01803486       5.67261038      22.29206784        3       0.00000000       0.06681977      -0.03663497      -0.15041395
Pt       9.82524821       5.67261064      22.29206811        3       0.00000000      -0.06495002      -0.03976495      -0.15033247
Pt      -0.00000055       1.62074564      24.58417373        2       0.00000000      -0.00280968      -0.24462931       0.25446931
Pt       2.80721438       1.62074544      24.58417388        2       0.00000000      -0.00859171      -0.00464234      -0.02165462
Pt       5.61442780       1.62074536      24.58417376        2       0.00000000       0.00836277      -0.00489775      -0.02165193
Pt       1.40360636       4.05186448      24.58417388        2       0.00000000      -0.01191849       0.00513084      -0.04682125
Pt       4.21082089       4.05186396      24.58417385        2       0.00000000       0.00013707       0.00953627      -0.02139275
Pt       7.01803505       4.05186407      24.58417401        2       0.00000000       0.01004601       0.00873359      -0.04698136
Pt       2.80721273       6.48298345      24.58417382        2       0.00000000       0.21195471       0.11999558       0.25290033
Pt       5.61442806       6.48298330      24.58417394        2       0.00000000      -0.20913780       0.12494858       0.25270706
Pt       8.42164223       6.48298339      24.58417374        2       0.00000000       0.00195557      -0.01235674      -0.04577606
Pt      -0.00002511      -0.00371604      27.14350280        1       0.00000000       0.00008556       0.01766214      -0.01279654
Pt       2.80654228      -0.00282935      26.89802656        1       0.00000000       0.00422931      -0.00422712      -0.00175674
Pt       5.61504950      -0.00110752      26.89773654        1       0.00000000      -0.00424377      -0.00496834      -0.00110400
Pt       1.40189609       2.43192011      26.89729614        1       0.00000000      -0.00377898       0.00206192      -0.00063384
Pt       4.21080051       2.43145215      26.90537367        1       0.00000000       0.00014246      -0.00092739       0.00430258
Pt       7.02129035       2.43277060      26.89753122        1       0.00000000       0.00288051       0.00154122      -0.00129126
Pt       2.80446716       4.86509543      26.89788544        1       0.00000000      -0.00710376      -0.00567866      -0.00113674
Pt       5.61572509       4.86422769      26.89752621        1       0.00000000       0.00771620      -0.00537371      -0.00051518
Pt       8.42164246       4.86257464      26.91409775        1       0.00000000       0.00009853      -0.00093593      -0.00598431
C        0.00001616      -0.00121964      29.22528972        0       1.00000000      -0.00050585       0.00634073       0.01185533
H        0.00055508       1.04430694      29.56636026        0       0.00000000       0.00051105       0.00801319       0.00174963
H        0.90480200      -0.52317060      29.56917325        0       0.00000000       0.00640783      -0.00691587       0.00039671
H       -0.90538592      -0.52210814      29.56918756        0       0.00000000      -0.00643943      -0.00675034       0.00021751
