40
Lattice="8.421641763931781 0.0 0.0 4.2108208819658905 7.293355709136913 0.0 0.0 0.0 46.87624170604845" Properties=species:S:1:pos:R:3:tags:I:1:initial_magmoms:R:1:forces:R:3 charge=0 spin=0 energy=-206.89616896457397 free_energy=-206.89616896457397 stress="0.010375072248280048 2.0010418211313663e-07 2.5932532565775546e-08 2.0010418211313663e-07 0.010375235229730606 -4.668345923164452e-07 2.5932532565775546e-08 -4.668345923164452e-07 -0.0002851001045200974" pbc="T T T"
Pt      -0.00000012      -0.00000004      19.95723457        4       0.00000000      -0.00000193       0.00000553       0.01344572
Pt       2.80721395      -0.00000016      19.95723462        4       0.00000000      -0.00174081      -0.00490726       0.01744709
Pt       5.61442787      -0.00000009      19.95723469        4       0.00000000       0.00181279      -0.00372803       0.01930200
Pt       1.40360721       2.43111844      19.95723450        4       0.00000000      -0.00414689       0.00031065       0.01924246
Pt       4.21082082       2.43111841      19.95723461        4       0.00000000       0.00000322      -0.00000050       0.02532279
Pt       7.01803480       2.43111847      19.95723446        4       0.00000000       0.00513478       0.00093454       0.01743791
Pt       2.80721415       4.86223736      19.95723430        4       0.00000000      -0.00339837       0.00397729       0.01753630
Pt       5.61442796       4.86223738      19.95723451        4       0.00000000       0.00233455       0.00341963       0.01928453
Pt       8.42164141       4.86223712      19.95723445        4       0.00000000       0.00000435      -0.00000688      -0.03656553
Pt       1.40360727       0.81037260      22.29206796        3       0.00000000      -0.00070793      -0.00287858      -0.00422904
Pt       4.21082131       0.81037250      22.29206795        3       0.00000000       0.00444639      -0.01066741      -0.06767051
Pt       7.01803474       0.81037257      22.29206787        3       0.00000000       0.00282636       0.00088751      -0.00423709
Pt       2.80721448       3.24149122      22.29206776        3       0.00000000      -0.01149097       0.00147638      -0.06746018
Pt       5.61442763       3.24149122      22.29206790        3       0.00000000       0.00703853       0.00922898      -0.06747309
Pt       8.42164153       3.24149129      22.29206804        3       0.00000000      -0.00187912       0.07525956      -0.14862143
Pt       4.21082092       5.67260997      22.29206741        3       0.00000000      -0.00212621       0.00201770      -0.00400034
Pt       7.01803486       5.67261038      22.29206784        3       0.00000000       0.06611539      -0.03603023      -0.14865410
Pt       9.82524821       5.67261064      22.29206811        3       0.00000000      -0.06422623      -0.03925150      -0.14865056
Pt      -0.00000055       1.62074564      24.58417373        2       0.00000000      -0.00460874      -0.24079336       0.25752690
Pt       2.80721438       1.62074544      24.58417388        2       0.00000000      -0.00709084      -0.00738948      -0.01159611
Pt       5.61442780       1.62074536      24.58417376        2       0.00000000       0.00977290      -0.00252284      -0.01162180
Pt       1.40360636       4.05186448      24.58417388        2       0.00000000      -0.01434079       0.00985047      -0.04712871
Pt       4.21082089       4.05186396      24.58417385        2       0.00000000      -0.00271516       0.00973425      -0.01159928
Pt       7.01803505       4.05186407      24.58417401        2       0.00000000       0.01588223       0.00740708      -0.04723062
Pt       2.80721273       6.48298345      24.58417382        2       0.00000000       0.21056125       0.11631596       0.25767758
Pt       5.61442806       6.48298330      24.58417394        2       0.00000000      -0.20590350       0.12436741       0.25758928
Pt       8.42164223       6.48298339      24.58417374        2       0.00000000      -0.00153235      -0.01722882      -0.04700835
Pt       0.00000287      -0.00017512      27.13937781        1       0.00000000      -0.00001185       0.00022180       0.03366743
Pt       2.80832436      -0.00429276      26.89958886        1       0.00000000      -0.01477554       0.00190034      -0.00382567
Pt       5.61041723      -0.00295678      26.89735415        1       0.00000000       0.01552398       0.00199206      -0.00512005
Pt       1.40304496       2.43601859      26.89728919        1       0.00000000      -0.00593562      -0.01456664      -0.00506771
Pt       4.21082422       2.43110701      26.90997752        1       0.00000000      -0.00003408      -0.00010049      -0.01054976
Pt       7.02119178       2.43417982      26.89948666        1       0.00000000       0.00573519      -0.01393778      -0.00401553
Pt       2.80293795       4.86338280      26.89952169        1       0.00000000       0.00905738       0.01189955      -0.00402041
Pt       5.61901517       4.86021504      26.89728118        1       0.00000000      -0.00962569       0.01245095      -0.00498189
Pt       8.42163826       4.86221194      26.91836321        1       0.00000000       0.00004376       0.00000580      -0.01413936
C       -0.00000124       0.00004806      29.22573309        0       1.00000000       0.00005632      -0.00011801      -0.02851218
H        0.52214538       0.90561875      29.56748948        0       0.00000000       0.00198903       0.00384806      -0.00032869
H        0.52303095      -0.90468265      29.56835748        0       0.00000000       0.00255206      -0.00401756      -0.00068242
H       -1.04517988      -0.00055581      29.56792132        0       0.00000000      -0.00459787       0.00063391      -0.00048967
