40
Lattice="8.421641763931781 0.0 0.0 4.2108208819658905 7.293355709136913 0.0 0.0 0.0 46.87624170604845" Properties=species:S:1:pos:R:3:tags:I:1:initial_magmoms:R:1:forces:R:3 charge=0 spin=0 energy=-206.89809347934448 free_energy=-206.89809347934448 stress="0.01035600807517767 -5.794688462401609e-08 1.4770358269799999e-08 -5.794688462401609e-08 0.0103549063205719 2.7583744213188766e-06 1.4770358269799999e-08 2.7583744213188766e-06 -0.0003516661818139255" pbc="T T T"
Pt      -0.00000012      -0.00000004      19.95723457        4       0.00000000      -0.00000937      -0.00002574       0.01328226
Pt       2.80721395      -0.00000016      19.95723462        4       0.00000000      -0.00192262      -0.00497104       0.01727502
Pt       5.61442787      -0.00000009      19.95723469        4       0.00000000       0.00194711      -0.00340468       0.01934346
Pt       1.40360721       2.43111844      19.95723450        4       0.00000000      -0.00401341       0.00006463       0.01935442
Pt       4.21082082       2.43111841      19.95723461        4       0.00000000      -0.00002429       0.00000700       0.02543049
Pt       7.01803480       2.43111847      19.95723446        4       0.00000000       0.00536809       0.00083401       0.01733698
Pt       2.80721415       4.86223736      19.95723430        4       0.00000000      -0.00342953       0.00423304       0.01741198
Pt       5.61442796       4.86223738      19.95723451        4       0.00000000       0.00203731       0.00347054       0.01939990
Pt       8.42164141       4.86223712      19.95723445        4       0.00000000       0.00001006       0.00018092      -0.03683376
Pt       1.40360727       0.81037260      22.29206796        3       0.00000000      -0.00026429      -0.00333253      -0.00310637
Pt       4.21082131       0.81037250      22.29206795        3       0.00000000       0.00425372      -0.01101471      -0.06698311
Pt       7.01803474       0.81037257      22.29206787        3       0.00000000       0.00300768       0.00143444      -0.00315073
Pt       2.80721448       3.24149122      22.29206776        3       0.00000000      -0.01170888       0.00189629      -0.06656149
Pt       5.61442763       3.24149122      22.29206790        3       0.00000000       0.00749497       0.00935051      -0.06662170
Pt       8.42164153       3.24149129      22.29206804        3       0.00000000      -0.00178680       0.07622582      -0.15047085
Pt       4.21082092       5.67260997      22.29206741        3       0.00000000      -0.00272182       0.00199578      -0.00316182
Pt       7.01803486       5.67261038      22.29206784        3       0.00000000       0.06625572      -0.03610279      -0.15047954
Pt       9.82524821       5.67261064      22.29206811        3       0.00000000      -0.06449301      -0.03917842      -0.15055245
Pt      -0.00000055       1.62074564      24.58417373        2       0.00000000      -0.00312529      -0.24350215       0.25029469
Pt       2.80721438       1.62074544      24.58417388        2       0.00000000      -0.01090831      -0.00694136      -0.01875135
Pt       5.61442780       1.62074536      24.58417376        2       0.00000000       0.01085618      -0.00669130      -0.01872693
Pt       1.40360636       4.05186448      24.58417388        2       0.00000000      -0.01409411       0.00416228      -0.04719160
Pt       4.21082089       4.05186396      24.58417385        2       0.00000000      -0.00007228       0.01282091      -0.01924905
Pt       7.01803505       4.05186407      24.58417401        2       0.00000000       0.01151997       0.00891593      -0.04737800
Pt       2.80721273       6.48298345      24.58417382        2       0.00000000       0.21316332       0.11898699       0.25235248
Pt       5.61442806       6.48298330      24.58417394        2       0.00000000      -0.20996800       0.12462402       0.25217259
Pt       8.42164223       6.48298339      24.58417374        2       0.00000000       0.00262410      -0.01428691      -0.04740028
Pt       0.00002850       0.00374327      27.14358442        1       0.00000000      -0.00012223      -0.01777806      -0.01334933
Pt       2.80667919      -0.00455765      26.89793877        1       0.00000000       0.00397656      -0.00297875      -0.00143481
Pt       5.61533539      -0.00287254      26.89751779        1       0.00000000      -0.00436253      -0.00376981      -0.00078583
Pt       1.40121163       2.43095508      26.89759543        1       0.00000000       0.00002443       0.00955397      -0.00071616
Pt       4.21081915       2.43077606      26.90435648        1       0.00000000      -0.00007000       0.00080358       0.00515633
Pt       7.02168226       2.43211258      26.89800815        1       0.00000000      -0.00038734       0.00882759      -0.00153426
Pt       2.80411406       4.86412878      26.89774096        1       0.00000000      -0.00287655       0.00255913      -0.00178823
Pt       5.61586714       4.86360321      26.89718896        1       0.00000000       0.00393431       0.00257415      -0.00074834
Pt       8.42167198       4.86188652      26.91484805        1       0.00000000      -0.00013667       0.00110584      -0.00658041
C       -0.00001427       0.00123110      29.22518323        0       1.00000000       0.00048035      -0.00648845       0.01243979
H       -0.90466099       0.52341781      29.56907762        0       0.00000000      -0.00682267       0.00739329       0.00041919
H        0.90553397       0.52185739      29.56909416        0       0.00000000       0.00701139       0.00694859       0.00023766
H       -0.00084776      -1.04429112      29.56627830        0       0.00000000      -0.00064537      -0.00850242       0.00164904
