40
Lattice="8.421641763931781 0.0 0.0 4.2108208819658905 7.293355709136913 0.0 0.0 0.0 46.87624170604845" Properties=species:S:1:pos:R:3:tags:I:1:initial_magmoms:R:1:forces:R:3 charge=0 spin=0 energy=-206.8979485208484 free_energy=-206.8979485208484 stress="0.01036361139267683 -3.254679015185502e-08 -1.2732670917614541e-08 -3.254679015185502e-08 0.010363421402871609 4.609892584994668e-06 -1.2732670917614541e-08 4.609892584994668e-06 -0.00033680707565508783" pbc="T T T"
Pt      -0.00000012      -0.00000004      19.95723457        4       0.00000000      -0.00000467      -0.00002120       0.01318968
Pt       2.80721395      -0.00000016      19.95723462        4       0.00000000      -0.00194768      -0.00474575       0.01724683
Pt       5.61442787      -0.00000009      19.95723469        4       0.00000000       0.00197988      -0.00330053       0.01934537
Pt       1.40360721       2.43111844      19.95723450        4       0.00000000      -0.00387233      -0.00007212       0.01932340
Pt       4.21082082       2.43111841      19.95723461        4       0.00000000      -0.00001020      -0.00000020       0.02529684
Pt       7.01803480       2.43111847      19.95723446        4       0.00000000       0.00511820       0.00062976       0.01726755
Pt       2.80721415       4.86223736      19.95723430        4       0.00000000      -0.00318043       0.00412029       0.01733259
Pt       5.61442796       4.86223738      19.95723451        4       0.00000000       0.00190580       0.00340087       0.01935855
Pt       8.42164141       4.86223712      19.95723445        4       0.00000000       0.00000678       0.00008279      -0.03673694
Pt       1.40360727       0.81037260      22.29206796        3       0.00000000      -0.00029756      -0.00348176      -0.00252314
Pt       4.21082131       0.81037250      22.29206795        3       0.00000000       0.00441166      -0.01135545      -0.06727331
Pt       7.01803474       0.81037257      22.29206787        3       0.00000000       0.00308075       0.00139356      -0.00257947
Pt       2.80721448       3.24149122      22.29206776        3       0.00000000      -0.01209004       0.00185927      -0.06698563
Pt       5.61442763       3.24149122      22.29206790        3       0.00000000       0.00767708       0.00958631      -0.06701160
Pt       8.42164153       3.24149129      22.29206804        3       0.00000000      -0.00178901       0.07603424      -0.15051112
Pt       4.21082092       5.67260997      22.29206741        3       0.00000000      -0.00278657       0.00198370      -0.00250666
Pt       7.01803486       5.67261038      22.29206784        3       0.00000000       0.06648716      -0.03632972      -0.15031160
Pt       9.82524821       5.67261064      22.29206811        3       0.00000000      -0.06469899      -0.03941616      -0.15036257
Pt      -0.00000055       1.62074564      24.58417373        2       0.00000000      -0.00252260      -0.24245256       0.25301710
Pt       2.80721438       1.62074544      24.58417388        2       0.00000000      -0.00799330      -0.00437081      -0.01731347
Pt       5.61442780       1.62074536      24.58417376        2       0.00000000       0.00756381      -0.00482076      -0.01726082
Pt       1.40360636       4.05186448      24.58417388        2       0.00000000      -0.01030268       0.00252024      -0.04734325
Pt       4.21082089       4.05186396      24.58417385        2       0.00000000       0.00039571       0.00842974      -0.01898444
Pt       7.01803505       4.05186407      24.58417401        2       0.00000000       0.00791063       0.00687705      -0.04754683
Pt       2.80721273       6.48298345      24.58417382        2       0.00000000       0.21241122       0.11994672       0.25273418
Pt       5.61442806       6.48298330      24.58417394        2       0.00000000      -0.20983636       0.12442376       0.25255629
Pt       8.42164223       6.48298339      24.58417374        2       0.00000000       0.00238420      -0.01021447      -0.04822461
Pt       0.00000372       0.00207640      27.14278777        1       0.00000000       0.00001793      -0.00395884       0.00594910
Pt       2.80634223      -0.00482887      26.89809424        1       0.00000000       0.00624798       0.00442907      -0.00215182
Pt       5.61547658      -0.00267534      26.89826300        1       0.00000000      -0.00693257       0.00243608      -0.00315788
Pt       1.40157376       2.43137038      26.89855983        1       0.00000000       0.00281219       0.00646221      -0.00428031
Pt       4.21081037       2.43097981      26.90645509        1       0.00000000       0.00004195       0.00001965      -0.00082625
Pt       7.02184784       2.43258706      26.89837006        1       0.00000000      -0.00425724       0.00489933      -0.00337319
Pt       2.80451157       4.86529787      26.89788118        1       0.00000000      -0.00255213      -0.00581188      -0.00206153
Pt       5.61519070       4.86436347      26.89798769        1       0.00000000       0.00459768      -0.00540204      -0.00294656
Pt       8.42164134       4.86210441      26.91182928        1       0.00000000       0.00004035       0.00013183       0.00177366
C        0.00000522       0.00076924      29.22676370        0       1.00000000      -0.00010599      -0.00222021      -0.02358564
H        0.00008086       1.04531584      29.57117150        0       0.00000000       0.00033394      -0.00089669      -0.00060468
H        0.90561082      -0.52333879      29.56530032        0       0.00000000       0.00036482      -0.00051750       0.01104452
H       -0.90570809      -0.52314511      29.56530779        0       0.00000000      -0.00060910      -0.00027782       0.01102794
