40
Lattice="8.421641763931781 0.0 0.0 4.2108208819658905 7.293355709136913 0.0 0.0 0.0 46.87624170604845" Properties=species:S:1:pos:R:3:tags:I:1:initial_magmoms:R:1:forces:R:3 charge=0 spin=0 energy=-206.89771391696655 free_energy=-206.89771391696655 stress="0.010364546440541744 5.308137485116049e-09 1.1230986141086419e-09 5.308137485116049e-09 0.010364672169089317 2.221673298663518e-07 1.1230986141086419e-09 2.221673298663518e-07 -0.0003258005599491298" pbc="T T T"
Pt      -0.00000012      -0.00000004      19.95723457        4       0.00000000      -0.00000200       0.00000357       0.01352706
Pt       2.80721395      -0.00000016      19.95723462        4       0.00000000      -0.00176653      -0.00484152       0.01707835
Pt       5.61442787      -0.00000009      19.95723469        4       0.00000000       0.00187140      -0.00344084       0.01921288
Pt       1.40360721       2.43111844      19.95723450        4       0.00000000      -0.00392879       0.00011897       0.01915762
Pt       4.21082082       2.43111841      19.95723461        4       0.00000000       0.00000155      -0.00000055       0.02539446
Pt       7.01803480       2.43111847      19.95723446        4       0.00000000       0.00509486       0.00087968       0.01707095
Pt       2.80721415       4.86223736      19.95723430        4       0.00000000      -0.00333287       0.00396811       0.01716891
Pt       5.61442796       4.86223738      19.95723451        4       0.00000000       0.00205883       0.00332860       0.01920010
Pt       8.42164141       4.86223712      19.95723445        4       0.00000000       0.00000351      -0.00000464      -0.03641152
Pt       1.40360727       0.81037260      22.29206796        3       0.00000000      -0.00047609      -0.00356930      -0.00393782
Pt       4.21082131       0.81037250      22.29206795        3       0.00000000       0.00439290      -0.01119480      -0.06745020
Pt       7.01803474       0.81037257      22.29206787        3       0.00000000       0.00330258       0.00142173      -0.00395387
Pt       2.80721448       3.24149122      22.29206776        3       0.00000000      -0.01191385       0.00178300      -0.06723171
Pt       5.61442763       3.24149122      22.29206790        3       0.00000000       0.00752106       0.00944570      -0.06725280
Pt       8.42164153       3.24149129      22.29206804        3       0.00000000      -0.00181561       0.07551274      -0.14930129
Pt       4.21082092       5.67260997      22.29206741        3       0.00000000      -0.00283079       0.00216458      -0.00371455
Pt       7.01803486       5.67261038      22.29206784        3       0.00000000       0.06628503      -0.03620104      -0.14932604
Pt       9.82524821       5.67261064      22.29206811        3       0.00000000      -0.06446111      -0.03931241      -0.14932118
Pt      -0.00000055       1.62074564      24.58417373        2       0.00000000      -0.00309406      -0.24662057       0.25709912
Pt       2.80721438       1.62074544      24.58417388        2       0.00000000      -0.00412269      -0.00201615      -0.01768885
Pt       5.61442780       1.62074536      24.58417376        2       0.00000000       0.00363465      -0.00261796      -0.01770087
Pt       1.40360636       4.05186448      24.58417388        2       0.00000000      -0.01752434       0.00771751      -0.04999128
Pt       4.21082089       4.05186396      24.58417385        2       0.00000000       0.00042015       0.00448062      -0.01764601
Pt       7.01803505       4.05186407      24.58417401        2       0.00000000       0.01566378       0.01120890      -0.05012887
Pt       2.80721273       6.48298345      24.58417382        2       0.00000000       0.21498907       0.12057311       0.25748092
Pt       5.61442806       6.48298330      24.58417394        2       0.00000000      -0.21186236       0.12601694       0.25736198
Pt       8.42164223       6.48298339      24.58417374        2       0.00000000       0.00188971      -0.01895763      -0.04998150
Pt      -0.00000012       0.00003778      27.14560253        1       0.00000000       0.00000027      -0.00009876      -0.00962481
Pt       2.80971822      -0.00333209      26.89599610        1       0.00000000      -0.01562504      -0.00264796       0.00641169
Pt       5.61218332      -0.00219262      26.89569789        1       0.00000000       0.01471110      -0.00188578       0.00688932
Pt       1.40284819       2.43408702      26.89565112        1       0.00000000      -0.00886860      -0.01174679       0.00671357
Pt       4.21082036       2.43108577      26.91321646        1       0.00000000      -0.00001640       0.00003174      -0.01894747
Pt       7.01964172       2.43488147      26.89592862        1       0.00000000       0.00996386      -0.01216554       0.00616167
Pt       2.80310192       4.86168125      26.89597162        1       0.00000000       0.00568970       0.01507255       0.00611521
Pt       5.61743711       4.86133897      26.89562944        1       0.00000000      -0.00587178       0.01390918       0.00655785
Pt       8.42164483       4.86220565      26.91986511        1       0.00000000       0.00001504       0.00004835      -0.01997102
C       -0.00000415       0.00035330      29.22906228        0       1.00000000       0.00002603      -0.00018250      -0.02306656
H       -0.90489305      -0.52241603      29.57077307        0       0.00000000      -0.01125492      -0.00628320       0.00478625
H       -0.00031622       1.04542362      29.57069990        0       0.00000000       0.00022992       0.01274539       0.00448264
H        0.90519457      -0.52187983      29.57077377        0       0.00000000       0.01100273      -0.00664296       0.00477793
