40
Lattice="8.421641763931781 0.0 0.0 4.2108208819658905 7.293355709136913 0.0 0.0 0.0 46.87624170604845" Properties=species:S:1:pos:R:3:tags:I:1:initial_magmoms:R:1:forces:R:3 charge=0 spin=0 energy=-206.896111744115 free_energy=-206.896111744115 stress="0.010364208370447159 1.2684478178925929e-07 9.017929514243406e-09 1.2684478178925929e-07 0.01036436203867197 -4.119526124668482e-07 9.017929514243406e-09 -4.119526124668482e-07 -0.0003273538313806057" pbc="T T T"
Pt      -0.00000012      -0.00000004      19.95723457        4       0.00000000      -0.00000189       0.00000563       0.01358962
Pt       2.80721395      -0.00000016      19.95723462        4       0.00000000      -0.00178953      -0.00489163       0.01722735
Pt       5.61442787      -0.00000009      19.95723469        4       0.00000000       0.00184469      -0.00364389       0.01908646
Pt       1.40360721       2.43111844      19.95723450        4       0.00000000      -0.00409030       0.00024151       0.01902902
Pt       4.21082082       2.43111841      19.95723461        4       0.00000000       0.00000238      -0.00000079       0.02544198
Pt       7.01803480       2.43111847      19.95723446        4       0.00000000       0.00514651       0.00088349       0.01721925
Pt       2.80721415       4.86223736      19.95723430        4       0.00000000      -0.00336121       0.00401111       0.01731747
Pt       5.61442796       4.86223738      19.95723451        4       0.00000000       0.00224580       0.00340510       0.01907122
Pt       8.42164141       4.86223712      19.95723445        4       0.00000000       0.00000436      -0.00000439      -0.03645246
Pt       1.40360727       0.81037260      22.29206796        3       0.00000000      -0.00059026      -0.00292911      -0.00398176
Pt       4.21082131       0.81037250      22.29206795        3       0.00000000       0.00450467      -0.01092548      -0.06746463
Pt       7.01803474       0.81037257      22.29206787        3       0.00000000       0.00280709       0.00101161      -0.00399296
Pt       2.80721448       3.24149122      22.29206776        3       0.00000000      -0.01174055       0.00155164      -0.06724655
Pt       5.61442763       3.24149122      22.29206790        3       0.00000000       0.00723143       0.00940558      -0.06726317
Pt       8.42164153       3.24149129      22.29206804        3       0.00000000      -0.00189921       0.07547581      -0.14932351
Pt       4.21082092       5.67260997      22.29206741        3       0.00000000      -0.00222409       0.00193970      -0.00375496
Pt       7.01803486       5.67261038      22.29206784        3       0.00000000       0.06630675      -0.03611749      -0.14934795
Pt       9.82524821       5.67261064      22.29206811        3       0.00000000      -0.06439937      -0.03937458      -0.14934312
Pt      -0.00000055       1.62074564      24.58417373        2       0.00000000      -0.00533723      -0.24700360       0.25662556
Pt       2.80721438       1.62074544      24.58417388        2       0.00000000      -0.00422838      -0.00634637      -0.01665189
Pt       5.61442780       1.62074536      24.58417376        2       0.00000000       0.00745968      -0.00052035      -0.01666511
Pt       1.40360636       4.05186448      24.58417388        2       0.00000000      -0.01651853       0.01168014      -0.05049146
Pt       4.21082089       4.05186396      24.58417385        2       0.00000000      -0.00328356       0.00674219      -0.01663620
Pt       7.01803505       4.05186407      24.58417401        2       0.00000000       0.01856948       0.00836891      -0.05059574
Pt       2.80721273       6.48298345      24.58417382        2       0.00000000       0.21633418       0.11879066       0.25673446
Pt       5.61442806       6.48298330      24.58417394        2       0.00000000      -0.21094827       0.12811436       0.25663635
Pt       8.42164223       6.48298339      24.58417374        2       0.00000000      -0.00203636      -0.02004424      -0.05044069
Pt       0.00000035      -0.00013474      27.14583870        1       0.00000000       0.00000298       0.00006297      -0.01020574
Pt       2.80842574      -0.00360205      26.89736559        1       0.00000000      -0.01634897      -0.00214678       0.00531462
Pt       5.61097860      -0.00253764      26.89420305        1       0.00000000       0.01543744      -0.00126840       0.00725888
Pt       1.40313015       2.43532979      26.89416414        1       0.00000000      -0.00873512      -0.01281149       0.00722447
Pt       4.21082060       2.43110324      26.91232543        1       0.00000000      -0.00001691      -0.00004356      -0.01693672
Pt       7.02054616       2.43392598      26.89729359        1       0.00000000       0.00995925      -0.01320727       0.00499850
Pt       2.80348396       4.86296129      26.89732477        1       0.00000000       0.00640065       0.01525022       0.00504727
Pt       5.61836423       4.86049831      26.89414373        1       0.00000000      -0.00671767       0.01399182       0.00733461
Pt       8.42164452       4.86222199      26.92030234        1       0.00000000       0.00001306      -0.00003341      -0.02096107
C       -0.00000079       0.00001798      29.22939332        0       1.00000000       0.00000880       0.00006451      -0.02154019
H       -1.04509018      -0.00024236      29.57111953        0       0.00000000      -0.01148727       0.00033481       0.00471663
H        0.52234578       0.90535282      29.57072795        0       0.00000000       0.00566430       0.00992593       0.00483470
H        0.52274202      -0.90479406      29.57151504        0       0.00000000       0.00581112      -0.00994467       0.00458765
