40
Lattice="8.421641763931781 0.0 0.0 4.2108208819658905 7.293355709136913 0.0 0.0 0.0 46.87624170604845" Properties=species:S:1:pos:R:3:tags:I:1:initial_magmoms:R:1:forces:R:3 charge=0 spin=0 energy=-206.89809729404175 free_energy=-206.89809729404175 stress="0.010362079367041588 -1.4104712420248688e-07 1.1851912340432591e-08 -1.4104712420248688e-07 0.010363510809838772 -4.7219559746736195e-06 1.1851912340432591e-08 -4.7219559746736195e-06 -0.00033623684430494905" pbc="T T T"
Pt      -0.00000012      -0.00000004      19.95723457        4       0.00000000      -0.00000067       0.00002608       0.01324950
Pt       2.80721395      -0.00000016      19.95723462        4       0.00000000      -0.00201153      -0.00500860       0.01732690
Pt       5.61442787      -0.00000009      19.95723469        4       0.00000000       0.00202096      -0.00345456       0.01944140
Pt       1.40360721       2.43111844      19.95723450        4       0.00000000      -0.00399951       0.00001468       0.01935779
Pt       4.21082082       2.43111841      19.95723461        4       0.00000000       0.00001531      -0.00000905       0.02545413
Pt       7.01803480       2.43111847      19.95723446        4       0.00000000       0.00533973       0.00078453       0.01729595
Pt       2.80721415       4.86223736      19.95723430        4       0.00000000      -0.00333597       0.00421423       0.01742578
Pt       5.61442796       4.86223738      19.95723451        4       0.00000000       0.00198011       0.00340716       0.01940633
Pt       8.42164141       4.86223712      19.95723445        4       0.00000000       0.00000264      -0.00007291      -0.03686292
Pt       1.40360727       0.81037260      22.29206796        3       0.00000000      -0.00044703      -0.00335840      -0.00321468
Pt       4.21082131       0.81037250      22.29206795        3       0.00000000       0.00422851      -0.01116506      -0.06663422
Pt       7.01803474       0.81037257      22.29206787        3       0.00000000       0.00314739       0.00146527      -0.00319458
Pt       2.80721448       3.24149122      22.29206776        3       0.00000000      -0.01178906       0.00187860      -0.06647299
Pt       5.61442763       3.24149122      22.29206790        3       0.00000000       0.00754751       0.00923589      -0.06649332
Pt       8.42164153       3.24149129      22.29206804        3       0.00000000      -0.00174402       0.07545720      -0.15044200
Pt       4.21082092       5.67260997      22.29206741        3       0.00000000      -0.00270321       0.00195466      -0.00284032
Pt       7.01803486       5.67261038      22.29206784        3       0.00000000       0.06642675      -0.03639468      -0.15063967
Pt       9.82524821       5.67261064      22.29206811        3       0.00000000      -0.06466119      -0.03937173      -0.15057307
Pt      -0.00000055       1.62074564      24.58417373        2       0.00000000      -0.00282466      -0.24464737       0.25057569
Pt       2.80721438       1.62074544      24.58417388        2       0.00000000      -0.01015475      -0.00558866      -0.01562285
Pt       5.61442780       1.62074536      24.58417376        2       0.00000000       0.00995056      -0.00583642      -0.01565566
Pt       1.40360636       4.05186448      24.58417388        2       0.00000000      -0.01158908       0.00337083      -0.04873750
Pt       4.21082089       4.05186396      24.58417385        2       0.00000000       0.00010502       0.01213868      -0.01405325
Pt       7.01803505       4.05186407      24.58417401        2       0.00000000       0.00857360       0.00893719      -0.04883971
Pt       2.80721273       6.48298345      24.58417382        2       0.00000000       0.21173407       0.11894749       0.25116068
Pt       5.61442806       6.48298330      24.58417394        2       0.00000000      -0.20894319       0.12391295       0.25101435
Pt       8.42164223       6.48298339      24.58417374        2       0.00000000       0.00312479      -0.01156049      -0.04798970
Pt      -0.00000683      -0.00208802      27.14290017        1       0.00000000      -0.00002764       0.00400644       0.00569628
Pt       2.80627691      -0.00415050      26.89817312        1       0.00000000       0.00636322      -0.00033064      -0.00235091
Pt       5.61580408      -0.00199637      26.89830249        1       0.00000000      -0.00711075      -0.00239519      -0.00362039
Pt       1.40031558       2.43104759      26.89793968        1       0.00000000       0.00435056       0.00559083      -0.00284919
Pt       4.21082912       2.43130571      26.90565320        1       0.00000000      -0.00006365      -0.00014135      -0.00071039
Pt       7.02293704       2.43252869      26.89781941        1       0.00000000      -0.00567316       0.00383810      -0.00173838
Pt       2.80305166       4.86530126      26.89833036        1       0.00000000      -0.00021579      -0.00700834      -0.00305567
Pt       5.61652249       4.86464053      26.89837967        1       0.00000000       0.00237674      -0.00670563      -0.00418763
Pt       8.42164955       4.86235488      26.91251076        1       0.00000000      -0.00000735      -0.00004705       0.00135977
C       -0.00000314      -0.00079106      29.22671250        0       1.00000000       0.00005912       0.00225630      -0.02305191
H       -0.00043845      -1.04535187      29.57113892        0       0.00000000      -0.00050156       0.00093163      -0.00077898
H       -0.90543688       0.52365870      29.56523921        0       0.00000000      -0.00031467       0.00060848       0.01092974
H        0.90590057       0.52283684      29.56524642        0       0.00000000       0.00077205       0.00011882       0.01091587
