40
Lattice="8.421641763931781 0.0 0.0 4.2108208819658905 7.293355709136913 0.0 0.0 0.0 46.87624170604845" Properties=species:S:1:pos:R:3:tags:I:1:initial_magmoms:R:1:forces:R:3 charge=0 spin=0 energy=-206.89628340549194 free_energy=-206.89628340549194 stress="0.01036443654447794 4.808565279290633e-08 -4.1646708304199365e-09 4.808565279290633e-08 0.010364371351897717 1.1057205284714655e-07 -4.1646708304199365e-09 1.1057205284714655e-07 -0.00032729870872572064" pbc="T T T"
Pt      -0.00000012      -0.00000004      19.95723457        4       0.00000000      -0.00000181       0.00000173       0.01356392
Pt       2.80721395      -0.00000016      19.95723462        4       0.00000000      -0.00175240      -0.00508928       0.01698543
Pt       5.61442787      -0.00000009      19.95723469        4       0.00000000       0.00190857      -0.00339220       0.01938936
Pt       1.40360721       2.43111844      19.95723450        4       0.00000000      -0.00390305       0.00005389       0.01933799
Pt       4.21082082       2.43111841      19.95723461        4       0.00000000       0.00000138      -0.00000351       0.02549283
Pt       7.01803480       2.43111847      19.95723446        4       0.00000000       0.00529960       0.00100677       0.01698019
Pt       2.80721415       4.86223736      19.95723430        4       0.00000000      -0.00354974       0.00407514       0.01707576
Pt       5.61442796       4.86223738      19.95723451        4       0.00000000       0.00199531       0.00333431       0.01937936
Pt       8.42164141       4.86223712      19.95723445        4       0.00000000       0.00000415       0.00000729      -0.03659808
Pt       1.40360727       0.81037260      22.29206796        3       0.00000000      -0.00025259      -0.00409214      -0.00410186
Pt       4.21082131       0.81037250      22.29206795        3       0.00000000       0.00407584      -0.01125207      -0.06719245
Pt       7.01803474       0.81037257      22.29206787        3       0.00000000       0.00363012       0.00185718      -0.00412702
Pt       2.80721448       3.24149122      22.29206776        3       0.00000000      -0.01179903       0.00207087      -0.06696245
Pt       5.61442763       3.24149122      22.29206790        3       0.00000000       0.00772085       0.00918274      -0.06698470
Pt       8.42164153       3.24149129      22.29206804        3       0.00000000      -0.00167111       0.07535059      -0.14944115
Pt       4.21082092       5.67260997      22.29206741        3       0.00000000      -0.00338119       0.00220752      -0.00391446
Pt       7.01803486       5.67261038      22.29206784        3       0.00000000       0.06605960      -0.03624734      -0.14943199
Pt       9.82524821       5.67261064      22.29206811        3       0.00000000      -0.06438061      -0.03911268      -0.14943142
Pt      -0.00000055       1.62074564      24.58417373        2       0.00000000      -0.00123099      -0.24653040       0.25647750
Pt       2.80721438       1.62074544      24.58417388        2       0.00000000      -0.00792059      -0.00026596      -0.01631807
Pt       5.61442780       1.62074536      24.58417376        2       0.00000000       0.00407284      -0.00669356      -0.01632640
Pt       1.40360636       4.05186448      24.58417388        2       0.00000000      -0.02089425       0.00435397      -0.05072469
Pt       4.21082089       4.05186396      24.58417385        2       0.00000000       0.00378791       0.00690705      -0.01639868
Pt       7.01803505       4.05186407      24.58417401        2       0.00000000       0.01442537       0.01580697      -0.05084601
Pt       2.80721273       6.48298345      24.58417382        2       0.00000000       0.21398595       0.12225515       0.25656301
Pt       5.61442806       6.48298330      24.58417394        2       0.00000000      -0.21273015       0.12446118       0.25645149
Pt       8.42164223       6.48298339      24.58417374        2       0.00000000       0.00648413      -0.02012827      -0.05068731
Pt      -0.00000030       0.00011487      27.14586844        1       0.00000000      -0.00000346      -0.00015860      -0.01028165
Pt       2.81108700      -0.00380785      26.89463094        1       0.00000000      -0.01649595      -0.00185208       0.00678658
Pt       5.61365552      -0.00266772      26.89699382        1       0.00000000       0.01535275      -0.00103828       0.00589723
Pt       1.40168010       2.43314113      26.89696738        1       0.00000000      -0.00864444      -0.01281752       0.00563775
Pt       4.21082031       2.43113154      26.91158874        1       0.00000000      -0.00000947       0.00001794      -0.01660354
Pt       7.01939139       2.43640059      26.89458723        1       0.00000000       0.00987115      -0.01339070       0.00657981
Pt       2.80199120       4.86083359      26.89457808        1       0.00000000       0.00662696       0.01531739       0.00678424
Pt       5.61711802       4.86295636      26.89689789        1       0.00000000      -0.00670667       0.01393648       0.00559065
Pt       8.42164252       4.86225443      26.92089274        1       0.00000000       0.00002490       0.00002701      -0.02130592
C       -0.00000035      -0.00002805      29.22936096        0       1.00000000       0.00002343      -0.00008570      -0.02144129
H       -0.52415885      -0.90425509      29.57086580        0       0.00000000      -0.00538954      -0.01003972       0.00509674
H       -0.52093529       0.90589934      29.57130051        0       0.00000000      -0.00606888       0.00979775       0.00433939
H        1.04509382      -0.00192951      29.57108264        0       0.00000000       0.01143496       0.00016116       0.00470976
