40
Lattice="8.421641763931781 0.0 0.0 4.2108208819658905 7.293355709136913 0.0 0.0 0.0 46.87624170604845" Properties=species:S:1:pos:R:3:tags:I:1:initial_magmoms:R:1:forces:R:3 charge=0 spin=0 energy=-206.8937924081775 free_energy=-206.8937924081775 stress="0.010169300250709057 -1.5717397161552071e-07 -1.3349224836645135e-08 -1.5717397161552071e-07 0.010169223882257938 1.3667150255969318e-07 -1.3349224836645135e-08 1.3667150255969318e-07 -0.0007338171126320958" pbc="T T T"
Pt      -0.00000012      -0.00000004      19.95723457        4       0.00000000      -0.00000230       0.00000164       0.01278913
Pt       2.80721395      -0.00000016      19.95723462        4       0.00000000      -0.00181134      -0.00506490       0.01678835
Pt       5.61442787      -0.00000009      19.95723469        4       0.00000000       0.00194481      -0.00337409       0.01922758
Pt       1.40360721       2.43111844      19.95723450        4       0.00000000      -0.00390412       0.00001251       0.01917122
Pt       4.21082082       2.43111841      19.95723461        4       0.00000000       0.00000070      -0.00000597       0.02501787
Pt       7.01803480       2.43111847      19.95723446        4       0.00000000       0.00531150       0.00094357       0.01678437
Pt       2.80721415       4.86223736      19.95723430        4       0.00000000      -0.00350299       0.00411696       0.01687792
Pt       5.61442796       4.86223738      19.95723451        4       0.00000000       0.00196199       0.00335928       0.01921676
Pt       8.42164141       4.86223712      19.95723445        4       0.00000000       0.00000435       0.00000681      -0.03743891
Pt       1.40360727       0.81037260      22.29206796        3       0.00000000      -0.00064757      -0.00434264      -0.00343784
Pt       4.21082131       0.81037250      22.29206795        3       0.00000000       0.00391250      -0.01099637      -0.06657144
Pt       7.01803474       0.81037257      22.29206787        3       0.00000000       0.00404330       0.00163868      -0.00348193
Pt       2.80721448       3.24149122      22.29206776        3       0.00000000      -0.01149834       0.00209533      -0.06636202
Pt       5.61442763       3.24149122      22.29206790        3       0.00000000       0.00758666       0.00892395      -0.06640662
Pt       8.42164153       3.24149129      22.29206804        3       0.00000000      -0.00159538       0.07593474      -0.14750032
Pt       4.21082092       5.67260997      22.29206741        3       0.00000000      -0.00340000       0.00266700      -0.00329492
Pt       7.01803486       5.67261038      22.29206784        3       0.00000000       0.06651793      -0.03661672      -0.14750379
Pt       9.82524821       5.67261064      22.29206811        3       0.00000000      -0.06492274      -0.03933310      -0.14749703
Pt      -0.00000055       1.62074564      24.58417373        2       0.00000000      -0.00079261      -0.24258092       0.20518816
Pt       2.80721438       1.62074544      24.58417388        2       0.00000000      -0.00555573       0.00197736      -0.05535363
Pt       5.61442780       1.62074536      24.58417376        2       0.00000000       0.00084891      -0.00593528      -0.05535015
Pt       1.40360636       4.05186448      24.58417388        2       0.00000000      -0.02682945       0.00565971      -0.09065448
Pt       4.21082089       4.05186396      24.58417385        2       0.00000000       0.00454540       0.00369918      -0.05544651
Pt       7.01803505       4.05186407      24.58417401        2       0.00000000       0.01858239       0.02033567      -0.09090446
Pt       2.80721273       6.48298345      24.58417382        2       0.00000000       0.21029295       0.12063462       0.20557605
Pt       5.61442806       6.48298330      24.58417394        2       0.00000000      -0.20948772       0.12221881       0.20532030
Pt       8.42164223       6.48298339      24.58417374        2       0.00000000       0.00838432      -0.02588703      -0.09050571
Pt      -0.00000105       0.00012394      27.12253391        1       0.00000000      -0.00001460       0.00005944      -0.02434157
Pt       2.81031036      -0.00457122      26.88481153        1       0.00000000      -0.00175956       0.00319349       0.04713212
Pt       5.61556750      -0.00289258      26.88825994        1       0.00000000      -0.00260667       0.00230499       0.04048988
Pt       1.40053296       2.43155964      26.88814311        1       0.00000000       0.00327230       0.00118881       0.04064239
Pt       4.21081222       2.43112757      26.90235358        1       0.00000000       0.00001451       0.00002051       0.01623520
Pt       7.02043413       2.43607007      26.88467945        1       0.00000000      -0.00177751      -0.00307756       0.04738594
Pt       2.80172758       4.86189492      26.88474929        1       0.00000000       0.00356948       0.00004586       0.04713747
Pt       5.61635819       4.86473899      26.88804470        1       0.00000000      -0.00070653      -0.00334646       0.04071414
Pt       8.42165564       4.86224797      26.91384222        1       0.00000000       0.00001668       0.00004479       0.00461106
C        0.00000098       0.00003007      29.20169427        0       1.00000000      -0.00001513      -0.00029419      -0.00869866
H       -0.52325643      -0.90653897      29.53755383        0       0.00000000      -0.00157651      -0.00262745       0.03836442
H       -0.52335509       0.90624334      29.53839468        0       0.00000000      -0.00128058       0.00233182       0.03793096
H        1.04661227       0.00002652      29.53797351        0       0.00000000       0.00287673       0.00006706       0.03814850
