40
Lattice="8.421641763931781 0.0 0.0 4.2108208819658905 7.293355709136913 0.0 0.0 0.0 46.87624170604845" Properties=species:S:1:pos:R:3:tags:I:1:initial_magmoms:R:1:forces:R:3 charge=0 spin=0 energy=-206.8937924081775 free_energy=-206.8937924081775 stress="0.010169279761612415 -1.6264631597096013e-07 -1.9551123386918334e-08 -1.6264631597096013e-07 0.010169224813580513 1.3992796255024587e-07 -1.9551123386918334e-08 1.3992796255024587e-07 -0.0007338298601098359" pbc="T T T"
Pt      -0.00000012      -0.00000004      19.95723457        4       0.00000000      -0.00000238       0.00000166       0.01278909
Pt       2.80721395      -0.00000016      19.95723462        4       0.00000000      -0.00181137      -0.00506483       0.01678831
Pt       5.61442787      -0.00000009      19.95723469        4       0.00000000       0.00194495      -0.00337408       0.01922766
Pt       1.40360721       2.43111844      19.95723450        4       0.00000000      -0.00390429       0.00001258       0.01917139
Pt       4.21082082       2.43111841      19.95723461        4       0.00000000       0.00000076      -0.00000584       0.02501787
Pt       7.01803480       2.43111847      19.95723446        4       0.00000000       0.00531167       0.00094346       0.01678409
Pt       2.80721415       4.86223736      19.95723430        4       0.00000000      -0.00350287       0.00411696       0.01687796
Pt       5.61442796       4.86223738      19.95723451        4       0.00000000       0.00196188       0.00335909       0.01921683
Pt       8.42164141       4.86223712      19.95723445        4       0.00000000       0.00000452       0.00000676      -0.03743881
Pt       1.40360727       0.81037260      22.29206796        3       0.00000000      -0.00064765      -0.00434250      -0.00343754
Pt       4.21082131       0.81037250      22.29206795        3       0.00000000       0.00391240      -0.01099625      -0.06657151
Pt       7.01803474       0.81037257      22.29206787        3       0.00000000       0.00404330       0.00163870      -0.00348193
Pt       2.80721448       3.24149122      22.29206776        3       0.00000000      -0.01149862       0.00209555      -0.06636159
Pt       5.61442763       3.24149122      22.29206790        3       0.00000000       0.00758675       0.00892427      -0.06640641
Pt       8.42164153       3.24149129      22.29206804        3       0.00000000      -0.00159531       0.07593472      -0.14750087
Pt       4.21082092       5.67260997      22.29206741        3       0.00000000      -0.00340013       0.00266701      -0.00329476
Pt       7.01803486       5.67261038      22.29206784        3       0.00000000       0.06651825      -0.03661694      -0.14750466
Pt       9.82524821       5.67261064      22.29206811        3       0.00000000      -0.06492268      -0.03933319      -0.14749733
Pt      -0.00000055       1.62074564      24.58417373        2       0.00000000      -0.00079265      -0.24258271       0.20518960
Pt       2.80721438       1.62074544      24.58417388        2       0.00000000      -0.00555608       0.00197725      -0.05535316
Pt       5.61442780       1.62074536      24.58417376        2       0.00000000       0.00084927      -0.00593549      -0.05535007
Pt       1.40360636       4.05186448      24.58417388        2       0.00000000      -0.02682831       0.00565928      -0.09065720
Pt       4.21082089       4.05186396      24.58417385        2       0.00000000       0.00454553       0.00369889      -0.05544708
Pt       7.01803505       4.05186407      24.58417401        2       0.00000000       0.01858072       0.02033559      -0.09090723
Pt       2.80721273       6.48298345      24.58417382        2       0.00000000       0.21029414       0.12063543       0.20557801
Pt       5.61442806       6.48298330      24.58417394        2       0.00000000      -0.20948827       0.12221943       0.20532165
Pt       8.42164223       6.48298339      24.58417374        2       0.00000000       0.00838461      -0.02588567      -0.09050766
Pt      -0.00000053       0.00012373      27.12253492        1       0.00000000      -0.00001852       0.00006163      -0.02435197
Pt       2.81031041      -0.00457123      26.88481141        1       0.00000000      -0.00176233       0.00319434       0.04713227
Pt       5.61556711      -0.00289263      26.88825965        1       0.00000000      -0.00260367       0.00230565       0.04049002
Pt       1.40053284       2.43155974      26.88814331        1       0.00000000       0.00327191       0.00118545       0.04064317
Pt       4.21081222       2.43112771      26.90235353        1       0.00000000       0.00001546       0.00001817       0.01623530
Pt       7.02043396       2.43607009      26.88467954        1       0.00000000      -0.00177806      -0.00308091       0.04738767
Pt       2.80172769       4.86189462      26.88474875        1       0.00000000       0.00357131       0.00004992       0.04713750
Pt       5.61635798       4.86473901      26.88804447        1       0.00000000      -0.00070497      -0.00334558       0.04071485
Pt       8.42165573       4.86224808      26.91384207        1       0.00000000       0.00001665       0.00004522       0.00461714
C        0.00000102       0.00002978      29.20169649        0       1.00000000      -0.00006574      -0.00026281      -0.00873388
H        1.04661203       0.00002651      29.53797405        0       0.00000000       0.00292851       0.00006616       0.03817180
H       -0.52325616      -0.90653907      29.53755395        0       0.00000000      -0.00158543      -0.00264632       0.03837790
H       -0.52335491       0.90624371      29.53839463        0       0.00000000      -0.00127300       0.00231990       0.03793357
