40
Lattice="8.421641763931781 0.0 0.0 4.2108208819658905 7.293355709136913 0.0 0.0 0.0 46.87624170604845" Properties=species:S:1:pos:R:3:tags:I:1:initial_magmoms:R:1:forces:R:3 charge=0 spin=0 energy=-206.89734579868042 free_energy=-206.89734579868042 stress="0.010351866483688354 3.137840280942328e-07 -3.4028047934953065e-07 3.137840280942328e-07 0.010366156697273254 7.85226347943535e-06 -3.4028047934953065e-07 7.85226347943535e-06 -0.0003748512826859951" pbc="T T T"
Pt      -0.00000012      -0.00000004      19.95723457        4       0.00000000      -0.00002275       0.00015439       0.01350702
Pt       2.80721395      -0.00000016      19.95723462        4       0.00000000      -0.00180487      -0.00460508       0.01711075
Pt       5.61442787      -0.00000009      19.95723469        4       0.00000000       0.00187304      -0.00328845       0.01924632
Pt       1.40360721       2.43111844      19.95723450        4       0.00000000      -0.00404714       0.00053939       0.01905726
Pt       4.21082082       2.43111841      19.95723461        4       0.00000000      -0.00002378       0.00014289       0.02530748
Pt       7.01803480       2.43111847      19.95723446        4       0.00000000       0.00514963       0.00131881       0.01696605
Pt       2.80721415       4.86223736      19.95723430        4       0.00000000      -0.00338472       0.00411331       0.01713479
Pt       5.61442796       4.86223738      19.95723451        4       0.00000000       0.00208509       0.00350853       0.01914064
Pt       8.42164141       4.86223712      19.95723445        4       0.00000000      -0.00005128      -0.00036673      -0.03646224
Pt       1.40360727       0.81037260      22.29206796        3       0.00000000      -0.00051826      -0.00265826      -0.00477677
Pt       4.21082131       0.81037250      22.29206795        3       0.00000000       0.00434965      -0.01032630      -0.06746684
Pt       7.01803474       0.81037257      22.29206787        3       0.00000000       0.00332083       0.00223849      -0.00478452
Pt       2.80721448       3.24149122      22.29206776        3       0.00000000      -0.01163556       0.00243790      -0.06756271
Pt       5.61442763       3.24149122      22.29206790        3       0.00000000       0.00738886       0.01006940      -0.06762525
Pt       8.42164153       3.24149129      22.29206804        3       0.00000000      -0.00189503       0.07567800      -0.14750315
Pt       4.21082092       5.67260997      22.29206741        3       0.00000000      -0.00279420       0.00324212      -0.00307936
Pt       7.01803486       5.67261038      22.29206784        3       0.00000000       0.06650698      -0.03560519      -0.14910449
Pt       9.82524821       5.67261064      22.29206811        3       0.00000000      -0.06461716      -0.03864326      -0.14903250
Pt      -0.00000055       1.62074564      24.58417373        2       0.00000000      -0.00295121      -0.24784385       0.24229141
Pt       2.80721438       1.62074544      24.58417388        2       0.00000000      -0.00258489      -0.00429836      -0.02426307
Pt       5.61442780       1.62074536      24.58417376        2       0.00000000       0.00205920      -0.00480351      -0.02440852
Pt       1.40360636       4.05186448      24.58417388        2       0.00000000      -0.02050539       0.00770689      -0.05505842
Pt       4.21082089       4.05186396      24.58417385        2       0.00000000       0.00021970       0.00415626      -0.01838882
Pt       7.01803505       4.05186407      24.58417401        2       0.00000000       0.01895218       0.01100957      -0.05521273
Pt       2.80721273       6.48298345      24.58417382        2       0.00000000       0.21575664       0.11511713       0.25760651
Pt       5.61442806       6.48298330      24.58417394        2       0.00000000      -0.21266720       0.12079153       0.25742307
Pt       8.42164223       6.48298339      24.58417374        2       0.00000000       0.00179115      -0.02447690      -0.05554300
Pt       0.00004131      -0.00298794      27.14196663        1       0.00000000       0.00008305       0.00187456      -0.01749142
Pt       2.81031607      -0.00592259      26.89434482        1       0.00000000      -0.02004851      -0.00618060       0.01142427
Pt       5.61132309      -0.00466167      26.89410586        1       0.00000000       0.02003520      -0.00571188       0.01179742
Pt       1.40221338       2.43058064      26.89321212        1       0.00000000      -0.00544249      -0.00852234       0.01593337
Pt       4.21082426       2.42861346      26.91272900        1       0.00000000      -0.00009800      -0.00014289      -0.01620977
Pt       7.02047667       2.43106649      26.89352264        1       0.00000000       0.00603531      -0.00807810       0.01532358
Pt       2.80095528       4.85610196      26.89569899        1       0.00000000       0.01741046       0.02814365       0.00818503
Pt       5.61968368       4.85539535      26.89527066        1       0.00000000      -0.01773632       0.02799379       0.00893640
Pt       8.42169990       4.85980136      26.92171302        1       0.00000000      -0.00017772      -0.00032626      -0.02342636
C        0.00005428       0.01023589      29.22413844        0       1.00000000      -0.00021778      -0.00501173       0.01473420
H        0.00076728       1.05729841      29.56381335        0       0.00000000       0.00071524      -0.02681984      -0.00977385
H        0.90564011      -0.51271254      29.56694228        0       0.00000000      -0.01596304       0.00893470       0.00297771
H       -0.90639871      -0.51122944      29.56687503        0       0.00000000       0.01545499       0.00853832       0.00307037
