40
Lattice="8.421641763931781 0.0 0.0 4.2108208819658905 7.293355709136913 0.0 0.0 0.0 46.87624170604845" Properties=species:S:1:pos:R:3:tags:I:1:initial_magmoms:R:1:forces:R:3 charge=0 spin=0 energy=-206.8979485208484 free_energy=-206.8979485208484 stress="0.010357304476201534 -4.762076599718057e-08 -8.479855040377515e-09 -4.762076599718057e-08 0.010355495847761631 -2.8730298708978808e-06 -8.479855040377515e-09 -2.8730298708978808e-06 -0.00035199138801544905" pbc="T T T"
Pt      -0.00000012      -0.00000004      19.95723457        4       0.00000000       0.00000525       0.00003330       0.01322066
Pt       2.80721395      -0.00000016      19.95723462        4       0.00000000      -0.00193104      -0.00484227       0.01727440
Pt       5.61442787      -0.00000009      19.95723469        4       0.00000000       0.00198473      -0.00339464       0.01937490
Pt       1.40360721       2.43111844      19.95723450        4       0.00000000      -0.00387133      -0.00004964       0.01925082
Pt       4.21082082       2.43111841      19.95723461        4       0.00000000       0.00002804      -0.00001490       0.02528261
Pt       7.01803480       2.43111847      19.95723446        4       0.00000000       0.00510159       0.00069590       0.01720108
Pt       2.80721415       4.86223736      19.95723430        4       0.00000000      -0.00317570       0.00404679       0.01732716
Pt       5.61442796       4.86223738      19.95723451        4       0.00000000       0.00190165       0.00331466       0.01930071
Pt       8.42164141       4.86223712      19.95723445        4       0.00000000      -0.00000154      -0.00017331      -0.03670488
Pt       1.40360727       0.81037260      22.29206796        3       0.00000000      -0.00035241      -0.00342625      -0.00273299
Pt       4.21082131       0.81037250      22.29206795        3       0.00000000       0.00445850      -0.01138310      -0.06719168
Pt       7.01803474       0.81037257      22.29206787        3       0.00000000       0.00308917       0.00148100      -0.00275416
Pt       2.80721448       3.24149122      22.29206776        3       0.00000000      -0.01208487       0.00174960      -0.06724901
Pt       5.61442763       3.24149122      22.29206790        3       0.00000000       0.00758279       0.00947607      -0.06725623
Pt       8.42164153       3.24149129      22.29206804        3       0.00000000      -0.00184368       0.07541902      -0.15036364
Pt       4.21082092       5.67260997      22.29206741        3       0.00000000      -0.00275914       0.00180643      -0.00233444
Pt       7.01803486       5.67261038      22.29206784        3       0.00000000       0.06681990      -0.03663531      -0.15041417
Pt       9.82524821       5.67261064      22.29206811        3       0.00000000      -0.06495000      -0.03976512      -0.15033220
Pt      -0.00000055       1.62074564      24.58417373        2       0.00000000      -0.00281029      -0.24462944       0.25446895
Pt       2.80721438       1.62074544      24.58417388        2       0.00000000      -0.00859145      -0.00464098      -0.02165748
Pt       5.61442780       1.62074536      24.58417376        2       0.00000000       0.00836324      -0.00489887      -0.02165090
Pt       1.40360636       4.05186448      24.58417388        2       0.00000000      -0.01192001       0.00513050      -0.04682236
Pt       4.21082089       4.05186396      24.58417385        2       0.00000000       0.00013872       0.00953524      -0.02139674
Pt       7.01803505       4.05186407      24.58417401        2       0.00000000       0.01004664       0.00873348      -0.04698166
Pt       2.80721273       6.48298345      24.58417382        2       0.00000000       0.21195295       0.11999772       0.25290006
Pt       5.61442806       6.48298330      24.58417394        2       0.00000000      -0.20913859       0.12494838       0.25270528
Pt       8.42164223       6.48298339      24.58417374        2       0.00000000       0.00195864      -0.01235667      -0.04577760
Pt      -0.00002487      -0.00371724      27.14350353        1       0.00000000       0.00008386       0.01766699      -0.01281560
Pt       2.80654246      -0.00282928      26.89802639        1       0.00000000       0.00422777      -0.00422693      -0.00175006
Pt       5.61504918      -0.00110745      26.89773678        1       0.00000000      -0.00424248      -0.00496722      -0.00111024
Pt       1.40189635       2.43191990      26.89729641        1       0.00000000      -0.00378027       0.00206223      -0.00063409
Pt       4.21080063       2.43145221      26.90537397        1       0.00000000       0.00014370      -0.00092979       0.00430327
Pt       7.02129026       2.43277091      26.89753061        1       0.00000000       0.00288050       0.00153850      -0.00129141
Pt       2.80446780       4.86509530      26.89788482        1       0.00000000      -0.00710855      -0.00567684      -0.00112973
Pt       5.61572488       4.86422794      26.89752587        1       0.00000000       0.00771822      -0.00537408      -0.00051474
Pt       8.42164190       4.86257483      26.91409771        1       0.00000000       0.00009973      -0.00093827      -0.00598433
C        0.00001579      -0.00122003      29.22528805        0       1.00000000      -0.00050894       0.00638194       0.01189740
H        0.90480258      -0.52317086      29.56917246        0       0.00000000       0.00640225      -0.00691512       0.00039616
H       -0.90538623      -0.52210858      29.56918641        0       0.00000000      -0.00642507      -0.00674075       0.00021206
H        0.00055529       1.04430804      29.56635945        0       0.00000000       0.00050738       0.00796172       0.00173505
