40
Lattice="8.421641763931781 0.0 0.0 4.2108208819658905 7.293355709136913 0.0 0.0 0.0 46.87624170604845" Properties=species:S:1:pos:R:3:tags:I:1:initial_magmoms:R:1:forces:R:3 charge=0 spin=0 energy=-206.89634062595093 free_energy=-206.89634062595093 stress="0.010375093668699265 1.6103209077300562e-07 -4.687555676952115e-09 1.6103209077300562e-07 0.010374949313700199 1.2451297948246065e-07 -4.687555676952115e-09 1.2451297948246065e-07 -0.0002853894548024982" pbc="T T T"
Pt      -0.00000012      -0.00000004      19.95723457        4       0.00000000      -0.00000179      -0.00000007       0.01342959
Pt       2.80721395      -0.00000016      19.95723462        4       0.00000000      -0.00170426      -0.00512575       0.01724953
Pt       5.61442787      -0.00000009      19.95723469        4       0.00000000       0.00187975      -0.00345375       0.01955334
Pt       1.40360721       2.43111844      19.95723450        4       0.00000000      -0.00394110       0.00010786       0.01950247
Pt       4.21082082       2.43111841      19.95723461        4       0.00000000       0.00000094      -0.00000448       0.02537381
Pt       7.01803480       2.43111847      19.95723446        4       0.00000000       0.00530763       0.00106460       0.01724563
Pt       2.80721415       4.86223736      19.95723430        4       0.00000000      -0.00360553       0.00405223       0.01733971
Pt       5.61442796       4.86223738      19.95723451        4       0.00000000       0.00206321       0.00334040       0.01954388
Pt       8.42164141       4.86223712      19.95723445        4       0.00000000       0.00000452       0.00001072      -0.03671133
Pt       1.40360727       0.81037260      22.29206796        3       0.00000000      -0.00031934      -0.00410272      -0.00433106
Pt       4.21082131       0.81037250      22.29206795        3       0.00000000       0.00402607      -0.01099978      -0.06739634
Pt       7.01803474       0.81037257      22.29206787        3       0.00000000       0.00366990       0.00179650      -0.00436200
Pt       2.80721448       3.24149122      22.29206776        3       0.00000000      -0.01155579       0.00198696      -0.06716490
Pt       5.61442763       3.24149122      22.29206790        3       0.00000000       0.00752956       0.00901213      -0.06719298
Pt       8.42164153       3.24149129      22.29206804        3       0.00000000      -0.00161511       0.07513095      -0.14874145
Pt       4.21082092       5.67260997      22.29206741        3       0.00000000      -0.00335412       0.00226301      -0.00416354
Pt       7.01803486       5.67261038      22.29206784        3       0.00000000       0.06583188      -0.03618722      -0.14872774
Pt       9.82524821       5.67261064      22.29206811        3       0.00000000      -0.06421020      -0.03895030      -0.14872922
Pt      -0.00000055       1.62074564      24.58417373        2       0.00000000      -0.00166390      -0.24032809       0.25727424
Pt       2.80721438       1.62074544      24.58417388        2       0.00000000      -0.01023536      -0.00211837      -0.01094116
Pt       5.61442780       1.62074536      24.58417376        2       0.00000000       0.00681350      -0.00780366      -0.01097336
Pt       1.40360636       4.05186448      24.58417388        2       0.00000000      -0.01816236       0.00310809      -0.04768888
Pt       4.21082089       4.05186396      24.58417385        2       0.00000000       0.00333778       0.00982775      -0.01109918
Pt       7.01803505       4.05186407      24.58417401        2       0.00000000       0.01199383       0.01407480      -0.04786173
Pt       2.80721273       6.48298345      24.58417382        2       0.00000000       0.20884535       0.11880937       0.25741741
Pt       5.61442806       6.48298330      24.58417394        2       0.00000000      -0.20716003       0.12180123       0.25727215
Pt       8.42164223       6.48298339      24.58417374        2       0.00000000       0.00621542      -0.01711473      -0.04760607
Pt       0.00000020       0.00019089      27.13942180        1       0.00000000      -0.00001454      -0.00021063       0.03356454
Pt       2.81150440      -0.00450961      26.89765505        1       0.00000000      -0.01623195       0.00285382      -0.00525997
Pt       5.61362321      -0.00327869      26.89933879        1       0.00000000       0.01408364       0.00314165      -0.00353988
Pt       1.40116725       2.43349027      26.89929186        1       0.00000000      -0.00439488      -0.01380845      -0.00371203
Pt       4.21082343       2.43114585      26.90936912        1       0.00000000      -0.00004540      -0.00002042      -0.01074094
Pt       7.01977537       2.43712776      26.89757979        1       0.00000000       0.00582657      -0.01553594      -0.00528422
Pt       2.80119265       4.86083745      26.89758491        1       0.00000000       0.01042402       0.01282228      -0.00526805
Pt       5.61765971       4.86325080      26.89919520        1       0.00000000      -0.00970270       0.01082399      -0.00370444
Pt       8.42163996       4.86225576      26.91873695        1       0.00000000       0.00006070       0.00009251      -0.01367975
C        0.00000091      -0.00005593      29.22571105        0       1.00000000      -0.00001362       0.00013104      -0.02850448
H       -0.52272385       0.90485231      29.56834222        0       0.00000000      -0.00263176       0.00399767      -0.00067339
H        1.04518787       0.00019049      29.56788516        0       0.00000000       0.00456606      -0.00060208      -0.00045369
H       -0.52246178      -0.90546315      29.56743172        0       0.00000000      -0.00191650      -0.00388303      -0.00025466
