40
Lattice="8.421641763931781 0.0 0.0 4.2108208819658905 7.293355709136913 0.0 0.0 0.0 46.87624170604845" Properties=species:S:1:pos:R:3:tags:I:1:initial_magmoms:R:1:forces:R:3 charge=0 spin=0 energy=-206.89748694247925 free_energy=-206.89748694247925 stress="0.010361693799495697 -8.024931048566941e-07 4.2380219156257226e-07 -8.024931048566941e-07 0.010353495366871357 -7.1341546572512016e-06 4.2380219156257226e-07 -7.1341546572512016e-06 -0.00037483611959032714" pbc="T T T"
Pt      -0.00000012      -0.00000004      19.95723457        4       0.00000000       0.00001847      -0.00014489       0.01359557
Pt       2.80721395      -0.00000016      19.95723462        4       0.00000000      -0.00158653      -0.00548401       0.01704361
Pt       5.61442787      -0.00000009      19.95723469        4       0.00000000       0.00176671      -0.00394370       0.01914740
Pt       1.40360721       2.43111844      19.95723450        4       0.00000000      -0.00405557      -0.00008682       0.01923602
Pt       4.21082082       2.43111841      19.95723461        4       0.00000000       0.00002705      -0.00016826       0.02544251
Pt       7.01803480       2.43111847      19.95723446        4       0.00000000       0.00531063       0.00069973       0.01718509
Pt       2.80721415       4.86223736      19.95723430        4       0.00000000      -0.00366207       0.00389336       0.01720992
Pt       5.61442796       4.86223738      19.95723451        4       0.00000000       0.00235359       0.00322936       0.01923521
Pt       8.42164141       4.86223712      19.95723445        4       0.00000000       0.00006205       0.00038608      -0.03661264
Pt       1.40360727       0.81037260      22.29206796        3       0.00000000      -0.00060797      -0.00446126      -0.00409607
Pt       4.21082131       0.81037250      22.29206795        3       0.00000000       0.00414001      -0.01140791      -0.06762064
Pt       7.01803474       0.81037257      22.29206787        3       0.00000000       0.00328922       0.00037937      -0.00414211
Pt       2.80721448       3.24149122      22.29206776        3       0.00000000      -0.01145278       0.00096785      -0.06713796
Pt       5.61442763       3.24149122      22.29206790        3       0.00000000       0.00717524       0.00815267      -0.06712294
Pt       8.42164153       3.24149129      22.29206804        3       0.00000000      -0.00171862       0.07505594      -0.14964610
Pt       4.21082092       5.67260997      22.29206741        3       0.00000000      -0.00273019       0.00115544      -0.00543059
Pt       7.01803486       5.67261038      22.29206784        3       0.00000000       0.06576621      -0.03672740      -0.14800683
Pt       9.82524821       5.67261064      22.29206811        3       0.00000000      -0.06403441      -0.03988163      -0.14805909
Pt      -0.00000055       1.62074564      24.58417373        2       0.00000000      -0.00366119      -0.24353258       0.26056081
Pt       2.80721438       1.62074544      24.58417388        2       0.00000000      -0.00839133      -0.00163555      -0.01745178
Pt       5.61442780       1.62074536      24.58417376        2       0.00000000       0.00844953      -0.00150029      -0.01736485
Pt       1.40360636       4.05186448      24.58417388        2       0.00000000      -0.02260447       0.01207438      -0.05659805
Pt       4.21082089       4.05186396      24.58417385        2       0.00000000       0.00021947       0.00820691      -0.02297654
Pt       7.01803505       4.05186407      24.58417401        2       0.00000000       0.01994416       0.01649824      -0.05661387
Pt       2.80721273       6.48298345      24.58417382        2       0.00000000       0.21318838       0.12512676       0.24505590
Pt       5.61442806       6.48298330      24.58417394        2       0.00000000      -0.20949040       0.13115507       0.24508101
Pt       8.42164223       6.48298339      24.58417374        2       0.00000000       0.00245918      -0.02210140      -0.05601857
Pt       0.00001349       0.00330389      27.14204261        1       0.00000000      -0.00014126      -0.00171300      -0.01718599
Pt       2.81103528      -0.00189851      26.89487601        1       0.00000000      -0.02196682       0.00524770       0.01165885
Pt       5.61112567      -0.00073455      26.89422450        1       0.00000000       0.02100982       0.00569076       0.01282617
Pt       1.40359103       2.44050195      26.89509552        1       0.00000000      -0.01605531      -0.02852770       0.00852614
Pt       4.21083511       2.43346695      26.91094619        1       0.00000000       0.00009876       0.00111164      -0.01406497
Pt       7.01890774       2.44155290      26.89563080        1       0.00000000       0.01663097      -0.02901012       0.00749540
Pt       2.80309279       4.86643227      26.89345842        1       0.00000000       0.00324835       0.00944001       0.01499130
Pt       5.61729433       4.86630488      26.89297608        1       0.00000000      -0.00321673       0.00847836       0.01540330
Pt       8.42160001       4.86508007      26.92288659        1       0.00000000       0.00022248      -0.00033024      -0.02436715
C       -0.00002986      -0.00998127      29.22412095        0       1.00000000       0.00027147       0.00488606       0.01365927
H       -0.00074531      -1.05724703      29.56315379        0       0.00000000      -0.00088833       0.02672859      -0.00822784
H       -0.90562073       0.51287155      29.56707460        0       0.00000000       0.01555846      -0.00902584       0.00270207
H        0.90640442       0.51139429      29.56706817        0       0.00000000      -0.01494614      -0.00888181       0.00268905
