40
Lattice="8.421641763931781 0.0 0.0 4.2108208819658905 7.293355709136913 0.0 0.0 0.0 46.87624170604845" Properties=species:S:1:pos:R:3:tags:I:1:initial_magmoms:R:1:forces:R:3 charge=0 spin=0 energy=-206.89639593906128 free_energy=-206.89639593906128 stress="0.010357800871133804 9.770797504415896e-08 2.1725515830794961e-10 9.770797504415896e-08 0.010357977822422981 -1.9544494023193693e-07 2.1725515830794961e-10 -1.9544494023193693e-07 -0.00033872699714265764" pbc="T T T"
Pt      -0.00000012      -0.00000004      19.95723457        4       0.00000000      -0.00000167       0.00000627       0.01323741
Pt       2.80721395      -0.00000016      19.95723462        4       0.00000000      -0.00199539      -0.00478691       0.01739910
Pt       5.61442787      -0.00000009      19.95723469        4       0.00000000       0.00195990      -0.00351709       0.01924833
Pt       1.40360721       2.43111844      19.95723450        4       0.00000000      -0.00403828       0.00007995       0.01918992
Pt       4.21082082       2.43111841      19.95723461        4       0.00000000       0.00000264       0.00000002       0.02534397
Pt       7.01803480       2.43111847      19.95723446        4       0.00000000       0.00515940       0.00065624       0.01739020
Pt       2.80721415       4.86223736      19.95723430        4       0.00000000      -0.00316991       0.00413751       0.01749054
Pt       5.61442796       4.86223738      19.95723451        4       0.00000000       0.00207990       0.00344122       0.01923370
Pt       8.42164141       4.86223712      19.95723445        4       0.00000000       0.00000376      -0.00000670      -0.03679945
Pt       1.40360727       0.81037260      22.29206796        3       0.00000000      -0.00051289      -0.00279755      -0.00272730
Pt       4.21082131       0.81037250      22.29206795        3       0.00000000       0.00453722      -0.01114568      -0.06708211
Pt       7.01803474       0.81037257      22.29206787        3       0.00000000       0.00265869       0.00101587      -0.00274913
Pt       2.80721448       3.24149122      22.29206776        3       0.00000000      -0.01194616       0.00164086      -0.06686762
Pt       5.61442763       3.24149122      22.29206790        3       0.00000000       0.00740955       0.00954541      -0.06688543
Pt       8.42164153       3.24149129      22.29206804        3       0.00000000      -0.00187951       0.07582854      -0.15043698
Pt       4.21082092       5.67260997      22.29206741        3       0.00000000      -0.00215347       0.00180711      -0.00249899
Pt       7.01803486       5.67261038      22.29206784        3       0.00000000       0.06660831      -0.03631098      -0.15046759
Pt       9.82524821       5.67261064      22.29206811        3       0.00000000      -0.06471746      -0.03953535      -0.15046418
Pt      -0.00000055       1.62074564      24.58417373        2       0.00000000      -0.00457807      -0.24401654       0.25212079
Pt       2.80721438       1.62074544      24.58417388        2       0.00000000      -0.00774621      -0.00833747      -0.01743699
Pt       5.61442780       1.62074536      24.58417376        2       0.00000000       0.01091066      -0.00260726      -0.01746718
Pt       1.40360636       4.05186448      24.58417388        2       0.00000000      -0.00893494       0.00662503      -0.04887587
Pt       4.21082089       4.05186396      24.58417385        2       0.00000000      -0.00322932       0.01075178      -0.01743101
Pt       7.01803505       4.05186407      24.58417401        2       0.00000000       0.01040598       0.00432450      -0.04898037
Pt       2.80721273       6.48298345      24.58417382        2       0.00000000       0.21335132       0.11794084       0.25228125
Pt       5.61442806       6.48298330      24.58417394        2       0.00000000      -0.20871173       0.12596449       0.25219321
Pt       8.42164223       6.48298339      24.58417374        2       0.00000000      -0.00147346      -0.01096398      -0.04878654
Pt      -0.00000038      -0.00016646      27.14295888        1       0.00000000       0.00000631       0.00018590       0.00644907
Pt       2.80490493      -0.00437669      26.89929852        1       0.00000000       0.00533977       0.00134244      -0.00272077
Pt       5.61405445      -0.00221879      26.89680876        1       0.00000000      -0.00525681      -0.00070528      -0.00272465
Pt       1.40187955       2.43248060      26.89676156        1       0.00000000       0.00205200       0.00477849      -0.00291636
Pt       4.21081927       2.43109034      26.90577330        1       0.00000000      -0.00001616      -0.00004059       0.00101789
Pt       7.02296797       2.43123266      26.89919328        1       0.00000000      -0.00382477       0.00393175      -0.00256305
Pt       2.80458252       4.86638760      26.89923337        1       0.00000000      -0.00150336      -0.00537610      -0.00275769
Pt       5.61653899       4.86298846      26.89673855        1       0.00000000       0.00319735      -0.00416723      -0.00299345
Pt       8.42164337       4.86220525      26.91168056        1       0.00000000       0.00000821      -0.00001850       0.00236087
C       -0.00000076       0.00006943      29.22683028        0       1.00000000      -0.00003095      -0.00018834      -0.01420851
H        0.52212322      -0.90529704      29.56894654        0       0.00000000       0.00292330      -0.00481111       0.00378216
H       -1.04527089       0.00062359      29.56852275        0       0.00000000      -0.00563289       0.00033453       0.00395334
H        0.52314573       0.90516396      29.56809560        0       0.00000000       0.00273899       0.00499394       0.00414980
