40
Lattice="8.421641763931781 0.0 0.0 4.2108208819658905 7.293355709136913 0.0 0.0 0.0 46.87624170604845" Properties=species:S:1:pos:R:3:tags:I:1:initial_magmoms:R:1:forces:R:3 charge=0 spin=0 energy=-206.89361693210327 free_energy=-206.89361693210327 stress="0.010168860666453838 -1.468198291831868e-07 1.8287636294189724e-08 -1.468198291831868e-07 0.01016899012029171 -3.5910710494135856e-07 1.8287636294189724e-08 -3.5910710494135856e-07 -0.0007342735189013183" pbc="T T T"
Pt      -0.00000012      -0.00000004      19.95723457        4       0.00000000       0.00000009       0.00000476       0.01283256
Pt       2.80721395      -0.00000016      19.95723462        4       0.00000000      -0.00186062      -0.00479675       0.01709272
Pt       5.61442787      -0.00000009      19.95723469        4       0.00000000       0.00186643      -0.00371365       0.01884609
Pt       1.40360721       2.43111844      19.95723450        4       0.00000000      -0.00415779       0.00025081       0.01878623
Pt       4.21082082       2.43111841      19.95723461        4       0.00000000       0.00000159      -0.00000216       0.02499499
Pt       7.01803480       2.43111847      19.95723446        4       0.00000000       0.00509988       0.00077287       0.01708768
Pt       2.80721415       4.86223736      19.95723430        4       0.00000000      -0.00324439       0.00402593       0.01718392
Pt       5.61442796       4.86223738      19.95723451        4       0.00000000       0.00229318       0.00346166       0.01882991
Pt       8.42164141       4.86223712      19.95723445        4       0.00000000       0.00000521      -0.00000078      -0.03730410
Pt       1.40360727       0.81037260      22.29206796        3       0.00000000      -0.00107974      -0.00299998      -0.00333596
Pt       4.21082131       0.81037250      22.29206795        3       0.00000000       0.00436440      -0.01069590      -0.06681003
Pt       7.01803474       0.81037257      22.29206787        3       0.00000000       0.00311536       0.00061920      -0.00337212
Pt       2.80721448       3.24149122      22.29206776        3       0.00000000      -0.01146973       0.00156459      -0.06662080
Pt       5.61442763       3.24149122      22.29206790        3       0.00000000       0.00710264       0.00916599      -0.06663178
Pt       8.42164153       3.24149129      22.29206804        3       0.00000000      -0.00197406       0.07603377      -0.14740916
Pt       4.21082092       5.67260997      22.29206741        3       0.00000000      -0.00205021       0.00238858      -0.00315433
Pt       7.01803486       5.67261038      22.29206784        3       0.00000000       0.06682492      -0.03633282      -0.14741972
Pt       9.82524821       5.67261064      22.29206811        3       0.00000000      -0.06483232      -0.03972331      -0.14743273
Pt      -0.00000055       1.62074564      24.58417373        2       0.00000000      -0.00555611      -0.24305426       0.20536271
Pt       2.80721438       1.62074544      24.58417388        2       0.00000000      -0.00062131      -0.00571090      -0.05533672
Pt       5.61442780       1.62074536      24.58417376        2       0.00000000       0.00496229       0.00219833      -0.05550181
Pt       1.40360636       4.05186448      24.58417388        2       0.00000000      -0.02071160       0.01580964      -0.09085083
Pt       4.21082089       4.05186396      24.58417385        2       0.00000000      -0.00442819       0.00323933      -0.05542224
Pt       7.01803505       4.05186407      24.58417401        2       0.00000000       0.02421465       0.00999950      -0.09095154
Pt       2.80721273       6.48298345      24.58417382        2       0.00000000       0.21300556       0.11661134       0.20545548
Pt       5.61442806       6.48298330      24.58417394        2       0.00000000      -0.20726568       0.12641448       0.20548777
Pt       8.42164223       6.48298339      24.58417374        2       0.00000000      -0.00359894      -0.02567635      -0.09065412
Pt       0.00000486      -0.00010675      27.12248281        1       0.00000000       0.00000573      -0.00008034      -0.02417787
Pt       2.80620789      -0.00439313      26.88837569        1       0.00000000       0.00271552       0.00336299       0.04117096
Pt       5.61143272      -0.00282434      26.88456103        1       0.00000000       0.00180917       0.00298242       0.04695908
Pt       1.40266448       2.43508625      26.88451599        1       0.00000000       0.00164377      -0.00321738       0.04679898
Pt       4.21080896       2.43110929      26.90329450        1       0.00000000       0.00001068      -0.00004282       0.01480208
Pt       7.02233371       2.43239693      26.88816944        1       0.00000000      -0.00422561       0.00062278       0.04147613
Pt       2.80391628       4.86531617      26.88823145        1       0.00000000       0.00153771      -0.00409463       0.04134568
Pt       5.61837276       4.86107202      26.88450343        1       0.00000000      -0.00346750       0.00010038       0.04667451
Pt       8.42164742       4.86222718      26.91311068        1       0.00000000      -0.00002841      -0.00001023       0.00564818
C       -0.00000045      -0.00002930      29.20171352        0       1.00000000       0.00001524       0.00028680      -0.00851594
H        0.52337476      -0.90623626      29.53842193        0       0.00000000       0.00108360      -0.00210251       0.03780834
H       -1.04661428      -0.00005168      29.53801044        0       0.00000000      -0.00258560      -0.00001169       0.03801419
H        0.52323818       0.90654968      29.53759738        0       0.00000000       0.00148005       0.00235027       0.03824383
