40
Lattice="8.421641763931781 0.0 0.0 4.2108208819658905 7.293355709136913 0.0 0.0 0.0 46.87624170604845" Properties=species:S:1:pos:R:3:tags:I:1:initial_magmoms:R:1:forces:R:3 charge=0 spin=0 energy=-206.89734579868042 free_energy=-206.89734579868042 stress="0.010351870208978653 3.2049007359091775e-07 -3.448591598953499e-07 3.2049007359091775e-07 0.01036615390330553 7.852742783143185e-06 -3.448591598953499e-07 7.852742783143185e-06 -0.00037486516521312296" pbc="T T T"
Pt      -0.00000012      -0.00000004      19.95723457        4       0.00000000      -0.00002277       0.00015449       0.01350730
Pt       2.80721395      -0.00000016      19.95723462        4       0.00000000      -0.00180497      -0.00460495       0.01711100
Pt       5.61442787      -0.00000009      19.95723469        4       0.00000000       0.00187325      -0.00328822       0.01924626
Pt       1.40360721       2.43111844      19.95723450        4       0.00000000      -0.00404715       0.00053940       0.01905741
Pt       4.21082082       2.43111841      19.95723461        4       0.00000000      -0.00002374       0.00014285       0.02530752
Pt       7.01803480       2.43111847      19.95723446        4       0.00000000       0.00514967       0.00131875       0.01696588
Pt       2.80721415       4.86223736      19.95723430        4       0.00000000      -0.00338466       0.00411310       0.01713471
Pt       5.61442796       4.86223738      19.95723451        4       0.00000000       0.00208491       0.00350875       0.01914038
Pt       8.42164141       4.86223712      19.95723445        4       0.00000000      -0.00005133      -0.00036691      -0.03646194
Pt       1.40360727       0.81037260      22.29206796        3       0.00000000      -0.00051831      -0.00265802      -0.00477686
Pt       4.21082131       0.81037250      22.29206795        3       0.00000000       0.00434973      -0.01032630      -0.06746706
Pt       7.01803474       0.81037257      22.29206787        3       0.00000000       0.00332086       0.00223851      -0.00478429
Pt       2.80721448       3.24149122      22.29206776        3       0.00000000      -0.01163586       0.00243842      -0.06756189
Pt       5.61442763       3.24149122      22.29206790        3       0.00000000       0.00738886       0.01006943      -0.06762571
Pt       8.42164153       3.24149129      22.29206804        3       0.00000000      -0.00189510       0.07567806      -0.14750311
Pt       4.21082092       5.67260997      22.29206741        3       0.00000000      -0.00279414       0.00324217      -0.00307961
Pt       7.01803486       5.67261038      22.29206784        3       0.00000000       0.06650734      -0.03560490      -0.14910464
Pt       9.82524821       5.67261064      22.29206811        3       0.00000000      -0.06461744      -0.03864321      -0.14903210
Pt      -0.00000055       1.62074564      24.58417373        2       0.00000000      -0.00295111      -0.24784385       0.24228881
Pt       2.80721438       1.62074544      24.58417388        2       0.00000000      -0.00258512      -0.00429843      -0.02426300
Pt       5.61442780       1.62074536      24.58417376        2       0.00000000       0.00205852      -0.00480377      -0.02440986
Pt       1.40360636       4.05186448      24.58417388        2       0.00000000      -0.02050537       0.00770644      -0.05505807
Pt       4.21082089       4.05186396      24.58417385        2       0.00000000       0.00021835       0.00415471      -0.01839214
Pt       7.01803505       4.05186407      24.58417401        2       0.00000000       0.01895439       0.01100809      -0.05521506
Pt       2.80721273       6.48298345      24.58417382        2       0.00000000       0.21575654       0.11511643       0.25760600
Pt       5.61442806       6.48298330      24.58417394        2       0.00000000      -0.21266706       0.12079268       0.25742108
Pt       8.42164223       6.48298339      24.58417374        2       0.00000000       0.00179182      -0.02447710      -0.05554091
Pt       0.00004137      -0.00298858      27.14196535        1       0.00000000       0.00008564       0.00187539      -0.01749668
Pt       2.81031591      -0.00592270      26.89434483        1       0.00000000      -0.02004693      -0.00618208       0.01142344
Pt       5.61132352      -0.00466172      26.89410619        1       0.00000000       0.02002999      -0.00571419       0.01179721
Pt       1.40221310       2.43057999      26.89321204        1       0.00000000      -0.00543774      -0.00852033       0.01593337
Pt       4.21082450       2.42861318      26.91273003        1       0.00000000      -0.00009962      -0.00014419      -0.01621009
Pt       7.02047698       2.43106558      26.89352196        1       0.00000000       0.00603478      -0.00807567       0.01532415
Pt       2.80095490       4.85610146      26.89569881        1       0.00000000       0.01741003       0.02814348       0.00818484
Pt       5.61968417       4.85539459      26.89527002        1       0.00000000      -0.01773816       0.02799700       0.00894461
Pt       8.42169983       4.85980105      26.92171261        1       0.00000000      -0.00017644      -0.00032503      -0.02342716
C        0.00005468       0.01023726      29.22413793        0       1.00000000      -0.00027113      -0.00502810       0.01472191
H        0.90564048      -0.51271154      29.56694064        0       0.00000000      -0.01594913       0.00892909       0.00299196
H       -0.90639990      -0.51122848      29.56687365        0       0.00000000       0.01548887       0.00855571       0.00306744
H        0.00076715       1.05730009      29.56381228        0       0.00000000       0.00071950      -0.02681765      -0.00976530
