40
Lattice="8.421641763931781 0.0 0.0 4.2108208819658905 7.293355709136913 0.0 0.0 0.0 46.87624170604845" Properties=species:S:1:pos:R:3:tags:I:1:initial_magmoms:R:1:forces:R:3 charge=0 spin=0 energy=-206.89734579868042 free_energy=-206.89734579868042 stress="0.010351898148655891 3.252318094837392e-07 -3.480427608337777e-07 3.252318094837392e-07 0.010366182774305344 7.858435310481582e-06 -3.480427608337777e-07 7.858435310481582e-06 -0.0003749045426957309" pbc="T T T"
Pt      -0.00000012      -0.00000004      19.95723457        4       0.00000000      -0.00002274       0.00015467       0.01350717
Pt       2.80721395      -0.00000016      19.95723462        4       0.00000000      -0.00180506      -0.00460498       0.01711089
Pt       5.61442787      -0.00000009      19.95723469        4       0.00000000       0.00187316      -0.00328814       0.01924647
Pt       1.40360721       2.43111844      19.95723450        4       0.00000000      -0.00404729       0.00053941       0.01905739
Pt       4.21082082       2.43111841      19.95723461        4       0.00000000      -0.00002354       0.00014283       0.02530769
Pt       7.01803480       2.43111847      19.95723446        4       0.00000000       0.00514968       0.00131881       0.01696575
Pt       2.80721415       4.86223736      19.95723430        4       0.00000000      -0.00338466       0.00411339       0.01713454
Pt       5.61442796       4.86223738      19.95723451        4       0.00000000       0.00208497       0.00350853       0.01914053
Pt       8.42164141       4.86223712      19.95723445        4       0.00000000      -0.00005146      -0.00036728      -0.03646173
Pt       1.40360727       0.81037260      22.29206796        3       0.00000000      -0.00051823      -0.00265761      -0.00477679
Pt       4.21082131       0.81037250      22.29206795        3       0.00000000       0.00434987      -0.01032596      -0.06746667
Pt       7.01803474       0.81037257      22.29206787        3       0.00000000       0.00332071       0.00223899      -0.00478447
Pt       2.80721448       3.24149122      22.29206776        3       0.00000000      -0.01163586       0.00243860      -0.06756225
Pt       5.61442763       3.24149122      22.29206790        3       0.00000000       0.00738900       0.01006977      -0.06762600
Pt       8.42164153       3.24149129      22.29206804        3       0.00000000      -0.00189514       0.07567723      -0.14750260
Pt       4.21082092       5.67260997      22.29206741        3       0.00000000      -0.00279421       0.00324235      -0.00307864
Pt       7.01803486       5.67261038      22.29206784        3       0.00000000       0.06650766      -0.03560512      -0.14910619
Pt       9.82524821       5.67261064      22.29206811        3       0.00000000      -0.06461767      -0.03864363      -0.14903328
Pt      -0.00000055       1.62074564      24.58417373        2       0.00000000      -0.00295060      -0.24784739       0.24228017
Pt       2.80721438       1.62074544      24.58417388        2       0.00000000      -0.00258204      -0.00429676      -0.02426548
Pt       5.61442780       1.62074536      24.58417376        2       0.00000000       0.00205580      -0.00480382      -0.02440904
Pt       1.40360636       4.05186448      24.58417388        2       0.00000000      -0.02050686       0.00770808      -0.05505417
Pt       4.21082089       4.05186396      24.58417385        2       0.00000000       0.00021802       0.00415271      -0.01838838
Pt       7.01803505       4.05186407      24.58417401        2       0.00000000       0.01895601       0.01100959      -0.05521182
Pt       2.80721273       6.48298345      24.58417382        2       0.00000000       0.21575764       0.11511558       0.25760514
Pt       5.61442806       6.48298330      24.58417394        2       0.00000000      -0.21266969       0.12079112       0.25741807
Pt       8.42164223       6.48298339      24.58417374        2       0.00000000       0.00179317      -0.02447997      -0.05553657
Pt       0.00004104      -0.00299344      27.14196748        1       0.00000000       0.00008507       0.00189951      -0.01754938
Pt       2.81031411      -0.00592272      26.89434290        1       0.00000000      -0.02003315      -0.00618679       0.01143046
Pt       5.61132521      -0.00466175      26.89410498        1       0.00000000       0.02001781      -0.00571789       0.01179621
Pt       1.40221132       2.43057708      26.89320936        1       0.00000000      -0.00543247      -0.00850774       0.01594028
Pt       4.21082456       2.42861269      26.91273207        1       0.00000000      -0.00009777      -0.00014505      -0.01621781
Pt       7.02047851       2.43106269      26.89351978        1       0.00000000       0.00602556      -0.00806432       0.01533073
Pt       2.80095495       4.85610146      26.89569781        1       0.00000000       0.01740552       0.02813335       0.00818513
Pt       5.61968427       4.85539453      26.89526977        1       0.00000000      -0.01773367       0.02798607       0.00894450
Pt       8.42169987       4.85980052      26.92171607        1       0.00000000      -0.00017605      -0.00032572      -0.02344128
C        0.00005529       0.01024021      29.22413506        0       1.00000000      -0.00029208      -0.00502080       0.01483664
H       -0.90640135      -0.51122568      29.56687208        0       0.00000000       0.01554523       0.00857641       0.00305251
H        0.00076667       1.05730349      29.56381327        0       0.00000000       0.00072188      -0.02687024      -0.00980133
H        0.90564201      -0.51270863      29.56693763        0       0.00000000      -0.01598674       0.00894209       0.00298392
