40
Lattice="8.421641763931781 0.0 0.0 4.2108208819658905 7.293355709136913 0.0 0.0 0.0 46.87624170604845" Properties=species:S:1:pos:R:3:tags:I:1:initial_magmoms:R:1:forces:R:3 charge=0 spin=0 energy=-206.8963387186023 free_energy=-206.8963387186023 stress="0.01037509087473154 1.6587729589900846e-07 -5.9376938921218425e-09 1.6587729589900846e-07 0.010374944657087326 1.2016603534448222e-07 -5.9376938921218425e-09 1.2016603534448222e-07 -0.00028540033963508904" pbc="T T T"
Pt      -0.00000012      -0.00000004      19.95723457        4       0.00000000      -0.00000200      -0.00000033       0.01342967
Pt       2.80721395      -0.00000016      19.95723462        4       0.00000000      -0.00170408      -0.00512577       0.01724951
Pt       5.61442787      -0.00000009      19.95723469        4       0.00000000       0.00187969      -0.00345367       0.01955334
Pt       1.40360721       2.43111844      19.95723450        4       0.00000000      -0.00394122       0.00010786       0.01950255
Pt       4.21082082       2.43111841      19.95723461        4       0.00000000       0.00000098      -0.00000472       0.02537395
Pt       7.01803480       2.43111847      19.95723446        4       0.00000000       0.00530779       0.00106477       0.01724571
Pt       2.80721415       4.86223736      19.95723430        4       0.00000000      -0.00360534       0.00405255       0.01733999
Pt       5.61442796       4.86223738      19.95723451        4       0.00000000       0.00206333       0.00334018       0.01954390
Pt       8.42164141       4.86223712      19.95723445        4       0.00000000       0.00000450       0.00001056      -0.03671112
Pt       1.40360727       0.81037260      22.29206796        3       0.00000000      -0.00031974      -0.00410249      -0.00433107
Pt       4.21082131       0.81037250      22.29206795        3       0.00000000       0.00402555      -0.01099987      -0.06739614
Pt       7.01803474       0.81037257      22.29206787        3       0.00000000       0.00367017       0.00179666      -0.00436175
Pt       2.80721448       3.24149122      22.29206776        3       0.00000000      -0.01155608       0.00198696      -0.06716479
Pt       5.61442763       3.24149122      22.29206790        3       0.00000000       0.00752929       0.00901258      -0.06719317
Pt       8.42164153       3.24149129      22.29206804        3       0.00000000      -0.00161563       0.07513013      -0.14874113
Pt       4.21082092       5.67260997      22.29206741        3       0.00000000      -0.00335477       0.00226300      -0.00416373
Pt       7.01803486       5.67261038      22.29206784        3       0.00000000       0.06583125      -0.03618653      -0.14872618
Pt       9.82524821       5.67261064      22.29206811        3       0.00000000      -0.06421068      -0.03895052      -0.14873023
Pt      -0.00000055       1.62074564      24.58417373        2       0.00000000      -0.00166486      -0.24033004       0.25727320
Pt       2.80721438       1.62074544      24.58417388        2       0.00000000      -0.01023265      -0.00211789      -0.01094246
Pt       5.61442780       1.62074536      24.58417376        2       0.00000000       0.00681267      -0.00780117      -0.01097380
Pt       1.40360636       4.05186448      24.58417388        2       0.00000000      -0.01816252       0.00310929      -0.04769240
Pt       4.21082089       4.05186396      24.58417385        2       0.00000000       0.00333819       0.00982687      -0.01109613
Pt       7.01803505       4.05186407      24.58417401        2       0.00000000       0.01199391       0.01407422      -0.04786204
Pt       2.80721273       6.48298345      24.58417382        2       0.00000000       0.20884815       0.11880912       0.25741723
Pt       5.61442806       6.48298330      24.58417394        2       0.00000000      -0.20716113       0.12180126       0.25727397
Pt       8.42164223       6.48298339      24.58417374        2       0.00000000       0.00621382      -0.01711559      -0.04760923
Pt       0.00000048       0.00019091      27.13942257        1       0.00000000      -0.00001172      -0.00021115       0.03354015
Pt       2.81150452      -0.00450930      26.89765500        1       0.00000000      -0.01623487       0.00285220      -0.00525827
Pt       5.61362320      -0.00327870      26.89933807        1       0.00000000       0.01408492       0.00314134      -0.00353303
Pt       1.40116718       2.43349019      26.89929091        1       0.00000000      -0.00439532      -0.01381026      -0.00370535
Pt       4.21082338       2.43114577      26.90936973        1       0.00000000      -0.00004404      -0.00001834      -0.01074711
Pt       7.01977554       2.43712753      26.89757903        1       0.00000000       0.00582609      -0.01553446      -0.00528422
Pt       2.80119229       4.86083715      26.89758441        1       0.00000000       0.01043115       0.01282470      -0.00526768
Pt       5.61765986       4.86325078      26.89919548        1       0.00000000      -0.00970606       0.01082434      -0.00370423
Pt       8.42164023       4.86225579      26.91873729        1       0.00000000       0.00005911       0.00009237      -0.01367925
C        0.00000073      -0.00005525      29.22571120        0       1.00000000      -0.00000444       0.00007746      -0.02848966
H        1.04518765       0.00019038      29.56788543        0       0.00000000       0.00456508      -0.00059875      -0.00045770
H       -0.52246191      -0.90546299      29.56743226        0       0.00000000      -0.00190967      -0.00386534      -0.00025980
H       -0.52272382       0.90485181      29.56834262        0       0.00000000      -0.00264870       0.00402846      -0.00066187
