40
Lattice="8.421641763931781 0.0 0.0 4.2108208819658905 7.293355709136913 0.0 0.0 0.0 46.87624170604845" Properties=species:S:1:pos:R:3:tags:I:1:initial_magmoms:R:1:forces:R:3 charge=0 spin=0 energy=-206.89794661349976 free_energy=-206.89794661349976 stress="0.010363600216805935 -4.3559428064554595e-08 -5.337825736972945e-09 -4.3559428064554595e-08 0.010363396257162094 4.60917544842232e-06 -5.337825736972945e-09 4.60917544842232e-06 -0.0003367880708537996" pbc="T T T"
Pt      -0.00000012      -0.00000004      19.95723457        4       0.00000000      -0.00000468      -0.00002110       0.01318957
Pt       2.80721395      -0.00000016      19.95723462        4       0.00000000      -0.00194745      -0.00474579       0.01724679
Pt       5.61442787      -0.00000009      19.95723469        4       0.00000000       0.00197976      -0.00330070       0.01934554
Pt       1.40360721       2.43111844      19.95723450        4       0.00000000      -0.00387217      -0.00007212       0.01932308
Pt       4.21082082       2.43111841      19.95723461        4       0.00000000      -0.00001025      -0.00000040       0.02529669
Pt       7.01803480       2.43111847      19.95723446        4       0.00000000       0.00511821       0.00062985       0.01726753
Pt       2.80721415       4.86223736      19.95723430        4       0.00000000      -0.00318058       0.00412033       0.01733273
Pt       5.61442796       4.86223738      19.95723451        4       0.00000000       0.00190576       0.00340085       0.01935864
Pt       8.42164141       4.86223712      19.95723445        4       0.00000000       0.00000690       0.00008310      -0.03673713
Pt       1.40360727       0.81037260      22.29206796        3       0.00000000      -0.00029786      -0.00348177      -0.00252365
Pt       4.21082131       0.81037250      22.29206795        3       0.00000000       0.00441162      -0.01135514      -0.06727339
Pt       7.01803474       0.81037257      22.29206787        3       0.00000000       0.00308031       0.00139349      -0.00257961
Pt       2.80721448       3.24149122      22.29206776        3       0.00000000      -0.01208993       0.00185926      -0.06698560
Pt       5.61442763       3.24149122      22.29206790        3       0.00000000       0.00767682       0.00958636      -0.06701149
Pt       8.42164153       3.24149129      22.29206804        3       0.00000000      -0.00178907       0.07603481      -0.15051146
Pt       4.21082092       5.67260997      22.29206741        3       0.00000000      -0.00278670       0.00198321      -0.00250622
Pt       7.01803486       5.67261038      22.29206784        3       0.00000000       0.06648725      -0.03632931      -0.15031120
Pt       9.82524821       5.67261064      22.29206811        3       0.00000000      -0.06469848      -0.03941573      -0.15036169
Pt      -0.00000055       1.62074564      24.58417373        2       0.00000000      -0.00252233      -0.24245158       0.25301674
Pt       2.80721438       1.62074544      24.58417388        2       0.00000000      -0.00799416      -0.00437172      -0.01731632
Pt       5.61442780       1.62074536      24.58417376        2       0.00000000       0.00756556      -0.00482195      -0.01726348
Pt       1.40360636       4.05186448      24.58417388        2       0.00000000      -0.01030284       0.00252053      -0.04734349
Pt       4.21082089       4.05186396      24.58417385        2       0.00000000       0.00039568       0.00843121      -0.01898677
Pt       7.01803505       4.05186407      24.58417401        2       0.00000000       0.00791131       0.00687662      -0.04754763
Pt       2.80721273       6.48298345      24.58417382        2       0.00000000       0.21241057       0.11994621       0.25273374
Pt       5.61442806       6.48298330      24.58417394        2       0.00000000      -0.20983572       0.12442326       0.25255582
Pt       8.42164223       6.48298339      24.58417374        2       0.00000000       0.00238387      -0.01021506      -0.04822614
Pt       0.00000410       0.00207651      27.14278586        1       0.00000000       0.00001112      -0.00395968       0.00598714
Pt       2.80634257      -0.00482890      26.89809423        1       0.00000000       0.00624749       0.00442834      -0.00215099
Pt       5.61547626      -0.00267532      26.89826316        1       0.00000000      -0.00692657       0.00243464      -0.00315737
Pt       1.40157423       2.43137068      26.89856013        1       0.00000000       0.00280811       0.00646171      -0.00427963
Pt       4.21081048       2.43097972      26.90645408        1       0.00000000       0.00004112       0.00002031      -0.00081870
Pt       7.02184767       2.43258739      26.89837026        1       0.00000000      -0.00425452       0.00489731      -0.00337308
Pt       2.80451119       4.86529723      26.89788104        1       0.00000000      -0.00255177      -0.00580851      -0.00206185
Pt       5.61519080       4.86436302      26.89798828        1       0.00000000       0.00459638      -0.00539967      -0.00294592
Pt       8.42164144       4.86210440      26.91182822        1       0.00000000       0.00004149       0.00013118       0.00177436
C        0.00000459       0.00076951      29.22676481        0       1.00000000      -0.00004204      -0.00224025      -0.02365250
H        0.90561092      -0.52333846      29.56529990        0       0.00000000       0.00035475      -0.00051020       0.01104257
H       -0.90570797      -0.52314476      29.56530702        0       0.00000000      -0.00065660      -0.00029912       0.01104533
H        0.00008096       1.04531540      29.57117127        0       0.00000000       0.00032983      -0.00086281      -0.00059109
