40
Lattice="8.421641763931781 0.0 0.0 4.2108208819658905 7.293355709136913 0.0 0.0 0.0 46.87624170604845" Properties=species:S:1:pos:R:3:tags:I:1:initial_magmoms:R:1:forces:R:3 charge=0 spin=0 energy=-206.89611365146362 free_energy=-206.89611365146362 stress="0.010364209301769733 1.289482867150582e-07 1.1879069283793342e-08 1.289482867150582e-07 0.010364362969994545 -4.161261131230276e-07 1.1879069283793342e-08 -4.161261131230276e-07 -0.00032735621789470315" pbc="T T T"
Pt      -0.00000012      -0.00000004      19.95723457        4       0.00000000      -0.00000178       0.00000558       0.01358962
Pt       2.80721395      -0.00000016      19.95723462        4       0.00000000      -0.00178976      -0.00489134       0.01722707
Pt       5.61442787      -0.00000009      19.95723469        4       0.00000000       0.00184480      -0.00364404       0.01908621
Pt       1.40360721       2.43111844      19.95723450        4       0.00000000      -0.00409013       0.00024137       0.01902885
Pt       4.21082082       2.43111841      19.95723461        4       0.00000000       0.00000226      -0.00000071       0.02544196
Pt       7.01803480       2.43111847      19.95723446        4       0.00000000       0.00514625       0.00088360       0.01721914
Pt       2.80721415       4.86223736      19.95723430        4       0.00000000      -0.00336114       0.00401107       0.01731719
Pt       5.61442796       4.86223738      19.95723451        4       0.00000000       0.00224568       0.00340491       0.01907088
Pt       8.42164141       4.86223712      19.95723445        4       0.00000000       0.00000452      -0.00000454      -0.03645276
Pt       1.40360727       0.81037260      22.29206796        3       0.00000000      -0.00058982      -0.00292940      -0.00398182
Pt       4.21082131       0.81037250      22.29206795        3       0.00000000       0.00450474      -0.01092586      -0.06746439
Pt       7.01803474       0.81037257      22.29206787        3       0.00000000       0.00280722       0.00101168      -0.00399269
Pt       2.80721448       3.24149122      22.29206776        3       0.00000000      -0.01174035       0.00155160      -0.06724643
Pt       5.61442763       3.24149122      22.29206790        3       0.00000000       0.00723183       0.00940536      -0.06726339
Pt       8.42164153       3.24149129      22.29206804        3       0.00000000      -0.00189934       0.07547499      -0.14932260
Pt       4.21082092       5.67260997      22.29206741        3       0.00000000      -0.00222407       0.00193950      -0.00375482
Pt       7.01803486       5.67261038      22.29206784        3       0.00000000       0.06630813      -0.03611840      -0.14935035
Pt       9.82524821       5.67261064      22.29206811        3       0.00000000      -0.06439967      -0.03937510      -0.14934379
Pt      -0.00000055       1.62074564      24.58417373        2       0.00000000      -0.00533743      -0.24700539       0.25662693
Pt       2.80721438       1.62074544      24.58417388        2       0.00000000      -0.00422845      -0.00634624      -0.01665192
Pt       5.61442780       1.62074536      24.58417376        2       0.00000000       0.00746002      -0.00052012      -0.01666507
Pt       1.40360636       4.05186448      24.58417388        2       0.00000000      -0.01651800       0.01168078      -0.05049058
Pt       4.21082089       4.05186396      24.58417385        2       0.00000000      -0.00328327       0.00674185      -0.01663683
Pt       7.01803505       4.05186407      24.58417401        2       0.00000000       0.01856903       0.00836915      -0.05059586
Pt       2.80721273       6.48298345      24.58417382        2       0.00000000       0.21633472       0.11879127       0.25673530
Pt       5.61442806       6.48298330      24.58417394        2       0.00000000      -0.21094924       0.12811521       0.25663796
Pt       8.42164223       6.48298339      24.58417374        2       0.00000000      -0.00203641      -0.02004426      -0.05043988
Pt       0.00000021      -0.00013465      27.14583927        1       0.00000000       0.00000037       0.00006575      -0.01021130
Pt       2.80842571      -0.00360205      26.89736603        1       0.00000000      -0.01634932      -0.00214669       0.00531483
Pt       5.61097840      -0.00253757      26.89420384        1       0.00000000       0.01543779      -0.00126865       0.00725949
Pt       1.40312990       2.43532964      26.89416455        1       0.00000000      -0.00873463      -0.01281114       0.00722519
Pt       4.21082056       2.43110319      26.91232478        1       0.00000000      -0.00001624      -0.00004381      -0.01693770
Pt       7.02054628       2.43392598      26.89729362        1       0.00000000       0.00995833      -0.01320731       0.00499895
Pt       2.80348410       4.86296137      26.89732528        1       0.00000000       0.00639656       0.01525034       0.00504842
Pt       5.61836428       4.86049849      26.89414414        1       0.00000000      -0.00671693       0.01399212       0.00733541
Pt       8.42164437       4.86222205      26.92030154        1       0.00000000       0.00001394      -0.00003362      -0.02096129
C       -0.00000130       0.00001786      29.22939501        0       1.00000000       0.00003788       0.00007135      -0.02155933
H        0.52234588       0.90535302      29.57072829        0       0.00000000       0.00566264       0.00992355       0.00483989
H        0.52274207      -0.90479431      29.57151494        0       0.00000000       0.00580947      -0.00994650       0.00459445
H       -1.04509012      -0.00024226      29.57112029        0       0.00000000      -0.01150993       0.00033227       0.00472482
