40
Lattice="8.421641763931781 0.0 0.0 4.2108208819658905 7.293355709136913 0.0 0.0 0.0 46.87624170604845" Properties=species:S:1:pos:R:3:tags:I:1:initial_magmoms:R:1:forces:R:3 charge=0 spin=0 energy=-206.89656950778686 free_energy=-206.89656950778686 stress="0.010358327999711037 -6.80809497666246e-09 1.8122394251918195e-08 -6.80809497666246e-09 0.010358117520809174 1.6832579774472833e-07 1.8122394251918195e-08 1.6832579774472833e-07 -0.00033807320869527757" pbc="T T T"
Pt      -0.00000012      -0.00000004      19.95723457        4       0.00000000      -0.00000197      -0.00000054       0.01320736
Pt       2.80721395      -0.00000016      19.95723462        4       0.00000000      -0.00195529      -0.00498561       0.01716473
Pt       5.61442787      -0.00000009      19.95723469        4       0.00000000       0.00202370      -0.00324729       0.01953612
Pt       1.40360721       2.43111844      19.95723450        4       0.00000000      -0.00383434      -0.00011918       0.01948559
Pt       4.21082082       2.43111841      19.95723461        4       0.00000000       0.00000182      -0.00000664       0.02540303
Pt       7.01803480       2.43111847      19.95723446        4       0.00000000       0.00531365       0.00077746       0.01716108
Pt       2.80721415       4.86223736      19.95723430        4       0.00000000      -0.00336121       0.00419865       0.01725831
Pt       5.61442796       4.86223738      19.95723451        4       0.00000000       0.00181453       0.00335903       0.01953021
Pt       8.42164141       4.86223712      19.95723445        4       0.00000000       0.00000511       0.00001063      -0.03694362
Pt       1.40360727       0.81037260      22.29206796        3       0.00000000      -0.00017218      -0.00402860      -0.00289991
Pt       4.21082131       0.81037250      22.29206795        3       0.00000000       0.00410235      -0.01150373      -0.06672861
Pt       7.01803474       0.81037257      22.29206787        3       0.00000000       0.00352880       0.00188166      -0.00292912
Pt       2.80721448       3.24149122      22.29206776        3       0.00000000      -0.01202693       0.00216760      -0.06650130
Pt       5.61442763       3.24149122      22.29206790        3       0.00000000       0.00792344       0.00932835      -0.06653116
Pt       8.42164153       3.24149129      22.29206804        3       0.00000000      -0.00163243       0.07570679      -0.15058011
Pt       4.21082092       5.67260997      22.29206741        3       0.00000000      -0.00336078       0.00208776      -0.00273763
Pt       7.01803486       5.67261038      22.29206784        3       0.00000000       0.06633650      -0.03646189      -0.15056971
Pt       9.82524821       5.67261064      22.29206811        3       0.00000000      -0.06470009      -0.03925430      -0.15056786
Pt      -0.00000055       1.62074564      24.58417373        2       0.00000000      -0.00075008      -0.24348551       0.25200596
Pt       2.80721438       1.62074544      24.58417388        2       0.00000000      -0.01100688      -0.00220957      -0.01677165
Pt       5.61442780       1.62074536      24.58417376        2       0.00000000       0.00730474      -0.00842041      -0.01675689
Pt       1.40360636       4.05186448      24.58417388        2       0.00000000      -0.01306533      -0.00070062      -0.04927257
Pt       4.21082089       4.05186396      24.58417385        2       0.00000000       0.00363773       0.01054901      -0.01689185
Pt       7.01803505       4.05186407      24.58417401        2       0.00000000       0.00615866       0.01154451      -0.04941914
Pt       2.80721273       6.48298345      24.58417382        2       0.00000000       0.21108544       0.12120026       0.25216070
Pt       5.61442806       6.48298330      24.58417394        2       0.00000000      -0.21033156       0.12259644       0.25199527
Pt       8.42164223       6.48298339      24.58417374        2       0.00000000       0.00696835      -0.01079257      -0.04917545
Pt      -0.00000042       0.00017647      27.14299172        1       0.00000000      -0.00001506      -0.00018445       0.00654225
Pt       2.80784742      -0.00445599      26.89672416        1       0.00000000       0.00465068       0.00139145      -0.00166382
Pt       5.61703619      -0.00226891      26.89947567        1       0.00000000      -0.00613220      -0.00065823      -0.00365048
Pt       1.40031339       2.43002342      26.89940512        1       0.00000000       0.00245902       0.00568287      -0.00374827
Pt       4.21082091       2.43115180      26.90550571        1       0.00000000      -0.00001324       0.00002841       0.00011616
Pt       7.02159581       2.43392755      26.89665514        1       0.00000000      -0.00345952       0.00333023      -0.00186499
Pt       2.80303202       4.86400989      26.89664455        1       0.00000000      -0.00118374      -0.00459280      -0.00191558
Pt       5.61510224       4.86573326      26.89930330        1       0.00000000       0.00366097      -0.00489030      -0.00374937
Pt       8.42164505       4.86227113      26.91194686        1       0.00000000       0.00002332       0.00004308       0.00270767
C        0.00000033      -0.00007071      29.22681332        0       1.00000000       0.00005552       0.00019047      -0.01428472
H       -0.52276326      -0.90538852      29.56806678        0       0.00000000      -0.00275688      -0.00508957       0.00414759
H       -0.52250723       0.90507327      29.56894188        0       0.00000000      -0.00299106       0.00486620       0.00378440
H        1.04527318      -0.00018802      29.56850361        0       0.00000000       0.00569634      -0.00030900       0.00394740
