40
Lattice="8.421641763931781 0.0 0.0 4.2108208819658905 7.293355709136913 0.0 0.0 0.0 46.87624170604845" Properties=species:S:1:pos:R:3:tags:I:1:initial_magmoms:R:1:forces:R:3 charge=0 spin=0 energy=-206.89809157199585 free_energy=-206.89809157199585 stress="0.010362070985138416 -1.423307196546375e-07 1.1306473091110547e-08 -1.423307196546375e-07 0.010363503359258175 -4.725109647552017e-06 1.1306473091110547e-08 -4.725109647552017e-06 -0.0003362447314430028" pbc="T T T"
Pt      -0.00000012      -0.00000004      19.95723457        4       0.00000000      -0.00000062       0.00002596       0.01324907
Pt       2.80721395      -0.00000016      19.95723462        4       0.00000000      -0.00201167      -0.00500830       0.01732688
Pt       5.61442787      -0.00000009      19.95723469        4       0.00000000       0.00202081      -0.00345446       0.01944121
Pt       1.40360721       2.43111844      19.95723450        4       0.00000000      -0.00399949       0.00001460       0.01935771
Pt       4.21082082       2.43111841      19.95723461        4       0.00000000       0.00001546      -0.00000898       0.02545406
Pt       7.01803480       2.43111847      19.95723446        4       0.00000000       0.00533958       0.00078454       0.01729611
Pt       2.80721415       4.86223736      19.95723430        4       0.00000000      -0.00333579       0.00421429       0.01742555
Pt       5.61442796       4.86223738      19.95723451        4       0.00000000       0.00198009       0.00340704       0.01940612
Pt       8.42164141       4.86223712      19.95723445        4       0.00000000       0.00000245      -0.00007318      -0.03686324
Pt       1.40360727       0.81037260      22.29206796        3       0.00000000      -0.00044737      -0.00335856      -0.00321325
Pt       4.21082131       0.81037250      22.29206795        3       0.00000000       0.00422825      -0.01116523      -0.06663416
Pt       7.01803474       0.81037257      22.29206787        3       0.00000000       0.00314741       0.00146551      -0.00319425
Pt       2.80721448       3.24149122      22.29206776        3       0.00000000      -0.01178908       0.00187834      -0.06647281
Pt       5.61442763       3.24149122      22.29206790        3       0.00000000       0.00754728       0.00923571      -0.06649313
Pt       8.42164153       3.24149129      22.29206804        3       0.00000000      -0.00174398       0.07545651      -0.15044090
Pt       4.21082092       5.67260997      22.29206741        3       0.00000000      -0.00270291       0.00195444      -0.00284072
Pt       7.01803486       5.67261038      22.29206784        3       0.00000000       0.06642661      -0.03639517      -0.15063998
Pt       9.82524821       5.67261064      22.29206811        3       0.00000000      -0.06466172      -0.03937189      -0.15057549
Pt      -0.00000055       1.62074564      24.58417373        2       0.00000000      -0.00282411      -0.24464656       0.25057182
Pt       2.80721438       1.62074544      24.58417388        2       0.00000000      -0.01015503      -0.00559055      -0.01562333
Pt       5.61442780       1.62074536      24.58417376        2       0.00000000       0.00995150      -0.00583662      -0.01565596
Pt       1.40360636       4.05186448      24.58417388        2       0.00000000      -0.01158815       0.00336974      -0.04873763
Pt       4.21082089       4.05186396      24.58417385        2       0.00000000       0.00010508       0.01213925      -0.01405436
Pt       7.01803505       4.05186407      24.58417401        2       0.00000000       0.00857179       0.00893692      -0.04883860
Pt       2.80721273       6.48298345      24.58417382        2       0.00000000       0.21173264       0.11894745       0.25115657
Pt       5.61442806       6.48298330      24.58417394        2       0.00000000      -0.20894048       0.12391357       0.25101152
Pt       8.42164223       6.48298339      24.58417374        2       0.00000000       0.00312332      -0.01155751      -0.04798849
Pt      -0.00000678      -0.00208797      27.14289799        1       0.00000000      -0.00002781       0.00400548       0.00571518
Pt       2.80627569      -0.00415002      26.89817394        1       0.00000000       0.00637258      -0.00033219      -0.00235784
Pt       5.61580505      -0.00199591      26.89830292        1       0.00000000      -0.00711814      -0.00239468      -0.00362037
Pt       1.40031606       2.43104656      26.89793929        1       0.00000000       0.00435225       0.00559992      -0.00284887
Pt       4.21082894       2.43130604      26.90565051        1       0.00000000      -0.00006062      -0.00014174      -0.00070449
Pt       7.02293801       2.43252808      26.89781991        1       0.00000000      -0.00568107       0.00384620      -0.00173990
Pt       2.80305185       4.86530267      26.89833091        1       0.00000000      -0.00021767      -0.00701504      -0.00305646
Pt       5.61652128       4.86464213      26.89838076        1       0.00000000       0.00238262      -0.00671362      -0.00418896
Pt       8.42164954       4.86235548      26.91250802        1       0.00000000      -0.00000840      -0.00004869       0.00136444
C       -0.00000325      -0.00079108      29.22671244        0       1.00000000       0.00005521       0.00225557      -0.02309474
H       -0.90543783       0.52365900      29.56523499        0       0.00000000      -0.00031312       0.00060948       0.01094261
H        0.90590107       0.52283734      29.56524245        0       0.00000000       0.00077111       0.00011692       0.01093002
H       -0.00043867      -1.04535271      29.57113704        0       0.00000000      -0.00049881       0.00093535      -0.00077101
