40
Lattice="8.421641763931781 0.0 0.0 4.2108208819658905 7.293355709136913 0.0 0.0 0.0 46.87624170604845" Properties=species:S:1:pos:R:3:tags:I:1:initial_magmoms:R:1:forces:R:3 charge=0 spin=0 energy=-206.89748884982788 free_energy=-206.89748884982788 stress="0.010361693799495697 -8.116530807456002e-07 4.1832294073174126e-07 -8.116530807456002e-07 0.010353503748774529 -7.13542112862342e-06 4.1832294073174126e-07 -7.13542112862342e-06 -0.00037483806954696774" pbc="T T T"
Pt      -0.00000012      -0.00000004      19.95723457        4       0.00000000       0.00001830      -0.00014487       0.01359545
Pt       2.80721395      -0.00000016      19.95723462        4       0.00000000      -0.00158657      -0.00548420       0.01704366
Pt       5.61442787      -0.00000009      19.95723469        4       0.00000000       0.00176675      -0.00394374       0.01914742
Pt       1.40360721       2.43111844      19.95723450        4       0.00000000      -0.00405569      -0.00008680       0.01923612
Pt       4.21082082       2.43111841      19.95723461        4       0.00000000       0.00002694      -0.00016850       0.02544247
Pt       7.01803480       2.43111847      19.95723446        4       0.00000000       0.00531073       0.00069989       0.01718515
Pt       2.80721415       4.86223736      19.95723430        4       0.00000000      -0.00366208       0.00389353       0.01720992
Pt       5.61442796       4.86223738      19.95723451        4       0.00000000       0.00235382       0.00322938       0.01923523
Pt       8.42164141       4.86223712      19.95723445        4       0.00000000       0.00006165       0.00038603      -0.03661254
Pt       1.40360727       0.81037260      22.29206796        3       0.00000000      -0.00060797      -0.00446139      -0.00409616
Pt       4.21082131       0.81037250      22.29206795        3       0.00000000       0.00414006      -0.01140800      -0.06762102
Pt       7.01803474       0.81037257      22.29206787        3       0.00000000       0.00328929       0.00037936      -0.00414213
Pt       2.80721448       3.24149122      22.29206776        3       0.00000000      -0.01145265       0.00096813      -0.06713809
Pt       5.61442763       3.24149122      22.29206790        3       0.00000000       0.00717502       0.00815273      -0.06712306
Pt       8.42164153       3.24149129      22.29206804        3       0.00000000      -0.00171870       0.07505547      -0.14964555
Pt       4.21082092       5.67260997      22.29206741        3       0.00000000      -0.00272984       0.00115541      -0.00542988
Pt       7.01803486       5.67261038      22.29206784        3       0.00000000       0.06576557      -0.03672694      -0.14800592
Pt       9.82524821       5.67261064      22.29206811        3       0.00000000      -0.06403480      -0.03988183      -0.14806011
Pt      -0.00000055       1.62074564      24.58417373        2       0.00000000      -0.00366134      -0.24353351       0.26056176
Pt       2.80721438       1.62074544      24.58417388        2       0.00000000      -0.00839176      -0.00163587      -0.01745185
Pt       5.61442780       1.62074536      24.58417376        2       0.00000000       0.00845013      -0.00150028      -0.01736435
Pt       1.40360636       4.05186448      24.58417388        2       0.00000000      -0.02260402       0.01207420      -0.05659724
Pt       4.21082089       4.05186396      24.58417385        2       0.00000000       0.00021972       0.00820685      -0.02297589
Pt       7.01803505       4.05186407      24.58417401        2       0.00000000       0.01994388       0.01649834      -0.05661350
Pt       2.80721273       6.48298345      24.58417382        2       0.00000000       0.21318945       0.12512723       0.24505767
Pt       5.61442806       6.48298330      24.58417394        2       0.00000000      -0.20949128       0.13115548       0.24508274
Pt       8.42164223       6.48298339      24.58417374        2       0.00000000       0.00245911      -0.02210134      -0.05601813
Pt       0.00001305       0.00330383      27.14204420        1       0.00000000      -0.00013517      -0.00171049      -0.01720798
Pt       2.81103514      -0.00189852      26.89487605        1       0.00000000      -0.02196670       0.00524746       0.01165790
Pt       5.61112568      -0.00073447      26.89422476        1       0.00000000       0.02101027       0.00569016       0.01282638
Pt       1.40359081       2.44050177      26.89509533        1       0.00000000      -0.01605500      -0.02852714       0.00852625
Pt       4.21083528       2.43346678      26.91094605        1       0.00000000       0.00009658       0.00111289      -0.01406489
Pt       7.01890780       2.44155287      26.89563037        1       0.00000000       0.01662919      -0.02900961       0.00749555
Pt       2.80309280       4.86643217      26.89345850        1       0.00000000       0.00324841       0.00943913       0.01499112
Pt       5.61729447       4.86630471      26.89297602        1       0.00000000      -0.00321704       0.00847833       0.01540285
Pt       8.42160007       4.86507986      26.92288665        1       0.00000000       0.00022255      -0.00033028      -0.02436747
C       -0.00002945      -0.00998090      29.22412050        0       1.00000000       0.00022513       0.00486740       0.01368631
H        0.90640384       0.51139397      29.56706994        0       0.00000000      -0.01491942      -0.00886541       0.00269217
H       -0.00074524      -1.05724692      29.56315455        0       0.00000000      -0.00088912       0.02673901      -0.00823191
H       -0.90562072       0.51287170      29.56707613        0       0.00000000       0.01557667      -0.00903636       0.00269147
