40
Lattice="8.421641763931781 0.0 0.0 4.2108208819658905 7.293355709136913 0.0 0.0 0.0 46.87624170604845" Properties=species:S:1:pos:R:3:tags:I:1:initial_magmoms:R:1:forces:R:3 charge=0 spin=0 energy=-206.89656950778686 free_energy=-206.89656950778686 stress="0.010358313098549843 -7.949144453789359e-09 6.781858630233728e-09 -7.949144453789359e-09 0.010358141735196114 1.730197851657067e-07 6.781858630233728e-09 1.730197851657067e-07 -0.0003380609559826553" pbc="T T T"
Pt      -0.00000012      -0.00000004      19.95723457        4       0.00000000      -0.00000201      -0.00000063       0.01320713
Pt       2.80721395      -0.00000016      19.95723462        4       0.00000000      -0.00195535      -0.00498534       0.01716446
Pt       5.61442787      -0.00000009      19.95723469        4       0.00000000       0.00202370      -0.00324712       0.01953587
Pt       1.40360721       2.43111844      19.95723450        4       0.00000000      -0.00383424      -0.00011922       0.01948576
Pt       4.21082082       2.43111841      19.95723461        4       0.00000000       0.00000167      -0.00000668       0.02540279
Pt       7.01803480       2.43111847      19.95723446        4       0.00000000       0.00531364       0.00077741       0.01716075
Pt       2.80721415       4.86223736      19.95723430        4       0.00000000      -0.00336121       0.00419884       0.01725818
Pt       5.61442796       4.86223738      19.95723451        4       0.00000000       0.00181443       0.00335889       0.01953012
Pt       8.42164141       4.86223712      19.95723445        4       0.00000000       0.00000508       0.00001045      -0.03694424
Pt       1.40360727       0.81037260      22.29206796        3       0.00000000      -0.00017228      -0.00402873      -0.00289962
Pt       4.21082131       0.81037250      22.29206795        3       0.00000000       0.00410268      -0.01150374      -0.06672890
Pt       7.01803474       0.81037257      22.29206787        3       0.00000000       0.00352902       0.00188124      -0.00292910
Pt       2.80721448       3.24149122      22.29206776        3       0.00000000      -0.01202694       0.00216759      -0.06650066
Pt       5.61442763       3.24149122      22.29206790        3       0.00000000       0.00792315       0.00932842      -0.06653170
Pt       8.42164153       3.24149129      22.29206804        3       0.00000000      -0.00163229       0.07570653      -0.15057915
Pt       4.21082092       5.67260997      22.29206741        3       0.00000000      -0.00336096       0.00208785      -0.00273777
Pt       7.01803486       5.67261038      22.29206784        3       0.00000000       0.06633703      -0.03646233      -0.15057079
Pt       9.82524821       5.67261064      22.29206811        3       0.00000000      -0.06470044      -0.03925465      -0.15056823
Pt      -0.00000055       1.62074564      24.58417373        2       0.00000000      -0.00074873      -0.24348271       0.25200507
Pt       2.80721438       1.62074544      24.58417388        2       0.00000000      -0.01100903      -0.00220980      -0.01677134
Pt       5.61442780       1.62074536      24.58417376        2       0.00000000       0.00730593      -0.00842207      -0.01675705
Pt       1.40360636       4.05186448      24.58417388        2       0.00000000      -0.01306433      -0.00070250      -0.04927221
Pt       4.21082089       4.05186396      24.58417385        2       0.00000000       0.00363766       0.01054951      -0.01689395
Pt       7.01803505       4.05186407      24.58417401        2       0.00000000       0.00615807       0.01154383      -0.04942146
Pt       2.80721273       6.48298345      24.58417382        2       0.00000000       0.21108253       0.12119985       0.25216085
Pt       5.61442806       6.48298330      24.58417394        2       0.00000000      -0.21033038       0.12259591       0.25199336
Pt       8.42164223       6.48298339      24.58417374        2       0.00000000       0.00697018      -0.01079092      -0.04917732
Pt      -0.00000124       0.00017726      27.14298898        1       0.00000000      -0.00001099      -0.00018507       0.00659118
Pt       2.80784768      -0.00445610      26.89672427        1       0.00000000       0.00464894       0.00139309      -0.00166437
Pt       5.61703625      -0.00226909      26.89947625        1       0.00000000      -0.00613230      -0.00065912      -0.00365692
Pt       1.40031389       2.43002318      26.89940566        1       0.00000000       0.00245623       0.00568352      -0.00375465
Pt       4.21082117       2.43115144      26.90550417        1       0.00000000      -0.00001444       0.00002958       0.00012328
Pt       7.02159590       2.43392770      26.89665569        1       0.00000000      -0.00345880       0.00332905      -0.00186524
Pt       2.80303230       4.86400931      26.89664503        1       0.00000000      -0.00118352      -0.00459063      -0.00191664
Pt       5.61510236       4.86573305      26.89930352        1       0.00000000       0.00366037      -0.00488974      -0.00374978
Pt       8.42164520       4.86227072      26.91194578        1       0.00000000       0.00002440       0.00004384       0.00271452
C        0.00000066      -0.00007036      29.22681505        0       1.00000000      -0.00003558       0.00022380      -0.01430537
H        1.04527286      -0.00018763      29.56850172        0       0.00000000       0.00573253      -0.00030969       0.00396301
H       -0.52276438      -0.90538923      29.56806635        0       0.00000000      -0.00273897      -0.00506764       0.00414195
H       -0.52250833       0.90507465      29.56894338        0       0.00000000      -0.00295440       0.00480892       0.00375845
