40
Lattice="8.421641763931781 0.0 0.0 4.2108208819658905 7.293355709136913 0.0 0.0 0.0 46.87624170604845" Properties=species:S:1:pos:R:3:tags:I:1:initial_magmoms:R:1:forces:R:3 charge=0 spin=0 energy=-206.89748694247925 free_energy=-206.89748694247925 stress="0.01036168821156025 -8.043329557949619e-07 4.1842605469355476e-07 -8.043329557949619e-07 0.010353508405387402 -7.141765763662988e-06 4.1842605469355476e-07 -7.141765763662988e-06 -0.0003748454910237342" pbc="T T T"
Pt      -0.00000012      -0.00000004      19.95723457        4       0.00000000       0.00001821      -0.00014480       0.01359557
Pt       2.80721395      -0.00000016      19.95723462        4       0.00000000      -0.00158646      -0.00548395       0.01704344
Pt       5.61442787      -0.00000009      19.95723469        4       0.00000000       0.00176664      -0.00394368       0.01914742
Pt       1.40360721       2.43111844      19.95723450        4       0.00000000      -0.00405549      -0.00008698       0.01923608
Pt       4.21082082       2.43111841      19.95723461        4       0.00000000       0.00002696      -0.00016843       0.02544264
Pt       7.01803480       2.43111847      19.95723446        4       0.00000000       0.00531068       0.00069970       0.01718505
Pt       2.80721415       4.86223736      19.95723430        4       0.00000000      -0.00366210       0.00389354       0.01720968
Pt       5.61442796       4.86223738      19.95723451        4       0.00000000       0.00235367       0.00322932       0.01923487
Pt       8.42164141       4.86223712      19.95723445        4       0.00000000       0.00006177       0.00038613      -0.03661250
Pt       1.40360727       0.81037260      22.29206796        3       0.00000000      -0.00060788      -0.00446122      -0.00409586
Pt       4.21082131       0.81037250      22.29206795        3       0.00000000       0.00414026      -0.01140798      -0.06762085
Pt       7.01803474       0.81037257      22.29206787        3       0.00000000       0.00328935       0.00037889      -0.00414173
Pt       2.80721448       3.24149122      22.29206776        3       0.00000000      -0.01145280       0.00096813      -0.06713789
Pt       5.61442763       3.24149122      22.29206790        3       0.00000000       0.00717455       0.00815240      -0.06712352
Pt       8.42164153       3.24149129      22.29206804        3       0.00000000      -0.00171867       0.07505585      -0.14964581
Pt       4.21082092       5.67260997      22.29206741        3       0.00000000      -0.00272994       0.00115544      -0.00543016
Pt       7.01803486       5.67261038      22.29206784        3       0.00000000       0.06576558      -0.03672699      -0.14800668
Pt       9.82524821       5.67261064      22.29206811        3       0.00000000      -0.06403491      -0.03988188      -0.14806053
Pt      -0.00000055       1.62074564      24.58417373        2       0.00000000      -0.00366100      -0.24353306       0.26056099
Pt       2.80721438       1.62074544      24.58417388        2       0.00000000      -0.00839037      -0.00163561      -0.01745078
Pt       5.61442780       1.62074536      24.58417376        2       0.00000000       0.00844852      -0.00149967      -0.01736236
Pt       1.40360636       4.05186448      24.58417388        2       0.00000000      -0.02260673       0.01207403      -0.05659704
Pt       4.21082089       4.05186396      24.58417385        2       0.00000000       0.00021948       0.00820346      -0.02297971
Pt       7.01803505       4.05186407      24.58417401        2       0.00000000       0.01994653       0.01649758      -0.05661232
Pt       2.80721273       6.48298345      24.58417382        2       0.00000000       0.21318927       0.12512885       0.24505411
Pt       5.61442806       6.48298330      24.58417394        2       0.00000000      -0.20949085       0.13115740       0.24508046
Pt       8.42164223       6.48298339      24.58417374        2       0.00000000       0.00245959      -0.02210199      -0.05601503
Pt       0.00001301       0.00330485      27.14204357        1       0.00000000      -0.00013596      -0.00171408      -0.01720808
Pt       2.81103490      -0.00189864      26.89487570        1       0.00000000      -0.02196299       0.00524790       0.01165769
Pt       5.61112611      -0.00073479      26.89422397        1       0.00000000       0.02100344       0.00569155       0.01282622
Pt       1.40359104       2.44050153      26.89509504        1       0.00000000      -0.01605471      -0.02852399       0.00852667
Pt       4.21083514       2.43346689      26.91094703        1       0.00000000       0.00009900       0.00111019      -0.01407068
Pt       7.01890794       2.44155229      26.89563074        1       0.00000000       0.01662847      -0.02900537       0.00749510
Pt       2.80309313       4.86643255      26.89345780        1       0.00000000       0.00324357       0.00943742       0.01499825
Pt       5.61729388       4.86630524      26.89297543        1       0.00000000      -0.00321292       0.00847612       0.01541059
Pt       8.42159993       4.86507999      26.92288781        1       0.00000000       0.00022323      -0.00032964      -0.02437421
C       -0.00002984      -0.00998036      29.22412027        0       1.00000000       0.00025506       0.00482725       0.01368421
H       -0.90562040       0.51287103      29.56707547        0       0.00000000       0.01555911      -0.00902157       0.00270078
H        0.90640441       0.51139387      29.56706904        0       0.00000000      -0.01492993      -0.00886697       0.00269639
H       -0.00074503      -1.05724733      29.56315413        0       0.00000000      -0.00088889       0.02676674      -0.00824065
