40
Lattice="8.421641763931781 0.0 0.0 4.2108208819658905 7.293355709136913 0.0 0.0 0.0 46.87624170604845" Properties=species:S:1:pos:R:3:tags:I:1:initial_magmoms:R:1:forces:R:3 charge=0 spin=0 energy=-206.897856968114 free_energy=-206.897856968114 stress="0.01036346610635519 -5.6995986597030424e-08 7.162055393195033e-09 -5.6995986597030424e-08 0.010363372042775154 -3.984698651038343e-07 7.162055393195033e-09 -3.984698651038343e-07 -0.0003264676488470286" pbc="T T T"
Pt      -0.00000012      -0.00000004      19.95723457        4       0.00000000      -0.00000133       0.00000131       0.01361215
Pt       2.80721395      -0.00000016      19.95723462        4       0.00000000      -0.00177691      -0.00512626       0.01715023
Pt       5.61442787      -0.00000009      19.95723469        4       0.00000000       0.00188064      -0.00359683       0.01926916
Pt       1.40360721       2.43111844      19.95723450        4       0.00000000      -0.00406407       0.00017664       0.01921691
Pt       4.21082082       2.43111841      19.95723461        4       0.00000000       0.00000240      -0.00000602       0.02552527
Pt       7.01803480       2.43111847      19.95723446        4       0.00000000       0.00533982       0.00100075       0.01714696
Pt       2.80721415       4.86223736      19.95723430        4       0.00000000      -0.00356596       0.00411159       0.01724185
Pt       5.61442796       4.86223738      19.95723451        4       0.00000000       0.00218537       0.00340853       0.01925796
Pt       8.42164141       4.86223712      19.95723445        4       0.00000000       0.00000463       0.00000927      -0.03654717
Pt       1.40360727       0.81037260      22.29206796        3       0.00000000      -0.00044306      -0.00347966      -0.00426875
Pt       4.21082131       0.81037250      22.29206795        3       0.00000000       0.00419942      -0.01086636      -0.06722748
Pt       7.01803474       0.81037257      22.29206787        3       0.00000000       0.00319155       0.00137922      -0.00428470
Pt       2.80721448       3.24149122      22.29206776        3       0.00000000      -0.01152294       0.00175883      -0.06699993
Pt       5.61442763       3.24149122      22.29206790        3       0.00000000       0.00731729       0.00908671      -0.06701765
Pt       8.42164153       3.24149129      22.29206804        3       0.00000000      -0.00177675       0.07530618      -0.14933816
Pt       4.21082092       5.67260997      22.29206741        3       0.00000000      -0.00275366       0.00205085      -0.00408497
Pt       7.01803486       5.67261038      22.29206784        3       0.00000000       0.06608412      -0.03614351      -0.14932619
Pt       9.82524821       5.67261064      22.29206811        3       0.00000000      -0.06429794      -0.03919441      -0.14932457
Pt      -0.00000055       1.62074564      24.58417373        2       0.00000000      -0.00347158      -0.24678031       0.25532728
Pt       2.80721438       1.62074544      24.58417388        2       0.00000000      -0.00757809      -0.00425207      -0.01550450
Pt       5.61442780       1.62074536      24.58417376        2       0.00000000       0.00739748      -0.00434945      -0.01549686
Pt       1.40360636       4.05186448      24.58417388        2       0.00000000      -0.01987545       0.00831439      -0.05035012
Pt       4.21082089       4.05186396      24.58417385        2       0.00000000       0.00013455       0.00861581      -0.01562477
Pt       7.01803505       4.05186407      24.58417401        2       0.00000000       0.01732831       0.01295906      -0.05045773
Pt       2.80721273       6.48298345      24.58417382        2       0.00000000       0.21523651       0.12046199       0.25516599
Pt       5.61442806       6.48298330      24.58417394        2       0.00000000      -0.21173546       0.12653962       0.25506034
Pt       8.42164223       6.48298339      24.58417374        2       0.00000000       0.00256003      -0.02118698      -0.05028470
Pt      -0.00000078       0.00000242      27.14563633        1       0.00000000      -0.00000451       0.00007978      -0.00992254
Pt       2.80981461      -0.00410870      26.89608086        1       0.00000000      -0.01601850      -0.00098012       0.00620056
Pt       5.61245914      -0.00297004      26.89558391        1       0.00000000       0.01472920      -0.00032629       0.00696482
Pt       1.40197462       2.43438148      26.89555999        1       0.00000000      -0.00778764      -0.01279334       0.00670664
Pt       4.21082101       2.43116957      26.91103873        1       0.00000000      -0.00000703      -0.00004602      -0.01517193
Pt       7.02033502       2.43550415      26.89603634        1       0.00000000       0.00895840      -0.01354624       0.00597681
Pt       2.80232111       4.86215328      26.89600483        1       0.00000000       0.00703412       0.01427583       0.00621760
Pt       5.61802261       4.86213865      26.89548037        1       0.00000000      -0.00692337       0.01287491       0.00671868
Pt       8.42164171       4.86229606      26.92163884        1       0.00000000       0.00002073      -0.00006166      -0.02307780
C        0.00000153      -0.00035719      29.22892536        0       1.00000000       0.00001446       0.00016534      -0.02242545
H        0.00020754      -1.04548518      29.57046675        0       0.00000000      -0.00038530      -0.01240016       0.00455930
H       -0.90517631       0.52196784      29.57063727        0       0.00000000      -0.01061953       0.00660073       0.00470815
H        0.90497834       0.52231951      29.57063287        0       0.00000000       0.01099012       0.00595838       0.00470932
