40
Lattice="8.421641763931781 0.0 0.0 4.2108208819658905 7.293355709136913 0.0 0.0 0.0 46.87624170604845" Properties=species:S:1:pos:R:3:tags:I:1:initial_magmoms:R:1:forces:R:3 charge=0 spin=0 energy=-206.8936188394519 free_energy=-206.8936188394519 stress="0.010168841108679771 -1.5249217710788798e-07 2.05978132328255e-08 -1.5249217710788798e-07 0.010168979875743389 -3.6148952631265274e-07 2.05978132328255e-08 -3.6148952631265274e-07 -0.0007342776516452432" pbc="T T T"
Pt      -0.00000012      -0.00000004      19.95723457        4       0.00000000      -0.00000007       0.00000462       0.01283266
Pt       2.80721395      -0.00000016      19.95723462        4       0.00000000      -0.00186073      -0.00479664       0.01709272
Pt       5.61442787      -0.00000009      19.95723469        4       0.00000000       0.00186649      -0.00371358       0.01884609
Pt       1.40360721       2.43111844      19.95723450        4       0.00000000      -0.00415775       0.00025062       0.01878619
Pt       4.21082082       2.43111841      19.95723461        4       0.00000000       0.00000153      -0.00000212       0.02499503
Pt       7.01803480       2.43111847      19.95723446        4       0.00000000       0.00509995       0.00077272       0.01708763
Pt       2.80721415       4.86223736      19.95723430        4       0.00000000      -0.00324434       0.00402597       0.01718386
Pt       5.61442796       4.86223738      19.95723451        4       0.00000000       0.00229300       0.00346155       0.01882987
Pt       8.42164141       4.86223712      19.95723445        4       0.00000000       0.00000524      -0.00000085      -0.03730439
Pt       1.40360727       0.81037260      22.29206796        3       0.00000000      -0.00107954      -0.00300016      -0.00333598
Pt       4.21082131       0.81037250      22.29206795        3       0.00000000       0.00436449      -0.01069638      -0.06680988
Pt       7.01803474       0.81037257      22.29206787        3       0.00000000       0.00311522       0.00061916      -0.00337209
Pt       2.80721448       3.24149122      22.29206776        3       0.00000000      -0.01146964       0.00156466      -0.06662090
Pt       5.61442763       3.24149122      22.29206790        3       0.00000000       0.00710265       0.00916603      -0.06663159
Pt       8.42164153       3.24149129      22.29206804        3       0.00000000      -0.00197427       0.07603347      -0.14740951
Pt       4.21082092       5.67260997      22.29206741        3       0.00000000      -0.00205016       0.00238848      -0.00315412
Pt       7.01803486       5.67261038      22.29206784        3       0.00000000       0.06682494      -0.03633265      -0.14741980
Pt       9.82524821       5.67261064      22.29206811        3       0.00000000      -0.06483265      -0.03972365      -0.14743365
Pt      -0.00000055       1.62074564      24.58417373        2       0.00000000      -0.00555603      -0.24305537       0.20536375
Pt       2.80721438       1.62074544      24.58417388        2       0.00000000      -0.00062145      -0.00571071      -0.05533770
Pt       5.61442780       1.62074536      24.58417376        2       0.00000000       0.00496229       0.00219903      -0.05550312
Pt       1.40360636       4.05186448      24.58417388        2       0.00000000      -0.02071199       0.01580977      -0.09084978
Pt       4.21082089       4.05186396      24.58417385        2       0.00000000      -0.00442844       0.00323952      -0.05542320
Pt       7.01803505       4.05186407      24.58417401        2       0.00000000       0.02421469       0.00999972      -0.09095109
Pt       2.80721273       6.48298345      24.58417382        2       0.00000000       0.21300700       0.11661163       0.20545636
Pt       5.61442806       6.48298330      24.58417394        2       0.00000000      -0.20726678       0.12641524       0.20548989
Pt       8.42164223       6.48298339      24.58417374        2       0.00000000      -0.00359870      -0.02567624      -0.09065276
Pt       0.00000470      -0.00010679      27.12248369        1       0.00000000       0.00000782      -0.00007941      -0.02418740
Pt       2.80620766      -0.00439303      26.88837631        1       0.00000000       0.00271770       0.00335923       0.04117149
Pt       5.61143292      -0.00282405      26.88456070        1       0.00000000       0.00180486       0.00297871       0.04696001
Pt       1.40266456       2.43508610      26.88451575        1       0.00000000       0.00164215      -0.00321469       0.04679922
Pt       4.21080889       2.43110924      26.90329426        1       0.00000000       0.00001093      -0.00004211       0.01480276
Pt       7.02233381       2.43239684      26.88817066        1       0.00000000      -0.00422465       0.00062422       0.04147685
Pt       2.80391644       4.86531611      26.88823145        1       0.00000000       0.00153694      -0.00409205       0.04134645
Pt       5.61837252       4.86107186      26.88450363        1       0.00000000      -0.00346520       0.00010149       0.04667505
Pt       8.42164736       4.86222721      26.91311059        1       0.00000000      -0.00002870      -0.00001108       0.00564697
C       -0.00000105      -0.00002900      29.20171609        0       1.00000000       0.00005320       0.00026604      -0.00856001
H       -1.04661327      -0.00005172      29.53800988        0       0.00000000      -0.00264236      -0.00001061       0.03803755
H        0.52323804       0.90654922      29.53759776        0       0.00000000       0.00149409       0.00237951       0.03825848
H        0.52337493      -0.90623610      29.53842240        0       0.00000000       0.00108846      -0.00211320       0.03781800
