40
Lattice="8.421641763931781 0.0 0.0 4.2108208819658905 7.293355709136913 0.0 0.0 0.0 46.87624170604845" Properties=species:S:1:pos:R:3:tags:I:1:initial_magmoms:R:1:forces:R:3 charge=0 spin=0 energy=-206.89809347934448 free_energy=-206.89809347934448 stress="0.010355997830629349 -6.133983276868094e-08 1.3874871918062581e-08 -6.133983276868094e-08 0.010354902595281601 2.757277343334863e-06 1.3874871918062581e-08 2.757277343334863e-06 -0.0003516669385135174" pbc="T T T"
Pt      -0.00000012      -0.00000004      19.95723457        4       0.00000000      -0.00000927      -0.00002588       0.01328215
Pt       2.80721395      -0.00000016      19.95723462        4       0.00000000      -0.00192265      -0.00497091       0.01727510
Pt       5.61442787      -0.00000009      19.95723469        4       0.00000000       0.00194714      -0.00340481       0.01934350
Pt       1.40360721       2.43111844      19.95723450        4       0.00000000      -0.00401349       0.00006456       0.01935438
Pt       4.21082082       2.43111841      19.95723461        4       0.00000000      -0.00002432       0.00000712       0.02543038
Pt       7.01803480       2.43111847      19.95723446        4       0.00000000       0.00536815       0.00083416       0.01733704
Pt       2.80721415       4.86223736      19.95723430        4       0.00000000      -0.00342965       0.00423302       0.01741198
Pt       5.61442796       4.86223738      19.95723451        4       0.00000000       0.00203735       0.00347038       0.01939990
Pt       8.42164141       4.86223712      19.95723445        4       0.00000000       0.00001002       0.00018080      -0.03683368
Pt       1.40360727       0.81037260      22.29206796        3       0.00000000      -0.00026404      -0.00333247      -0.00310683
Pt       4.21082131       0.81037250      22.29206795        3       0.00000000       0.00425359      -0.01101469      -0.06698333
Pt       7.01803474       0.81037257      22.29206787        3       0.00000000       0.00300774       0.00143460      -0.00315037
Pt       2.80721448       3.24149122      22.29206776        3       0.00000000      -0.01170866       0.00189637      -0.06656143
Pt       5.61442763       3.24149122      22.29206790        3       0.00000000       0.00749494       0.00935063      -0.06662158
Pt       8.42164153       3.24149129      22.29206804        3       0.00000000      -0.00178672       0.07622517      -0.15047024
Pt       4.21082092       5.67260997      22.29206741        3       0.00000000      -0.00272164       0.00199572      -0.00316182
Pt       7.01803486       5.67261038      22.29206784        3       0.00000000       0.06625591      -0.03610295      -0.15047956
Pt       9.82524821       5.67261064      22.29206811        3       0.00000000      -0.06449309      -0.03917840      -0.15055238
Pt      -0.00000055       1.62074564      24.58417373        2       0.00000000      -0.00312694      -0.24350263       0.25028995
Pt       2.80721438       1.62074544      24.58417388        2       0.00000000      -0.01090687      -0.00694054      -0.01875687
Pt       5.61442780       1.62074536      24.58417376        2       0.00000000       0.01085578      -0.00669040      -0.01872690
Pt       1.40360636       4.05186448      24.58417388        2       0.00000000      -0.01409492       0.00416374      -0.04719508
Pt       4.21082089       4.05186396      24.58417385        2       0.00000000      -0.00007079       0.01282192      -0.01924623
Pt       7.01803505       4.05186407      24.58417401        2       0.00000000       0.01151823       0.00891688      -0.04737566
Pt       2.80721273       6.48298345      24.58417382        2       0.00000000       0.21316300       0.11898655       0.25235119
Pt       5.61442806       6.48298330      24.58417394        2       0.00000000      -0.20996831       0.12462112       0.25217131
Pt       8.42164223       6.48298339      24.58417374        2       0.00000000       0.00262537      -0.01428798      -0.04740326
Pt       0.00002859       0.00374323      27.14358414        1       0.00000000      -0.00012012      -0.01777785      -0.01333757
Pt       2.80667930      -0.00455755      26.89793806        1       0.00000000       0.00397435      -0.00298317      -0.00142763
Pt       5.61533547      -0.00287267      26.89751727        1       0.00000000      -0.00436240      -0.00376909      -0.00078515
Pt       1.40121128       2.43095506      26.89759382        1       0.00000000       0.00002317       0.00955538      -0.00070795
Pt       4.21081891       2.43077585      26.90435669        1       0.00000000      -0.00006562       0.00080707       0.00515571
Pt       7.02168243       2.43211255      26.89800741        1       0.00000000      -0.00039047       0.00883096      -0.00153416
Pt       2.80411344       4.86412872      26.89774171        1       0.00000000      -0.00287062       0.00255955      -0.00178761
Pt       5.61586696       4.86360338      26.89718934        1       0.00000000       0.00393378       0.00257082      -0.00075632
Pt       8.42167210       4.86188650      26.91484804        1       0.00000000      -0.00013928       0.00110583      -0.00657988
C       -0.00001412       0.00123177      29.22518166        0       1.00000000       0.00045714      -0.00650890       0.01247282
H       -0.00084756      -1.04429142      29.56627895        0       0.00000000      -0.00064323      -0.00848015       0.00163407
H       -0.90466054       0.52341786      29.56907870        0       0.00000000      -0.00680843       0.00738745       0.00040589
H        0.90553363       0.52185727      29.56909563        0       0.00000000       0.00701579       0.00695103       0.00022595
