40
Lattice="8.421641763931781 0.0 0.0 4.2108208819658905 7.293355709136913 0.0 0.0 0.0 46.87624170604845" Properties=species:S:1:pos:R:3:tags:I:1:initial_magmoms:R:1:forces:R:3 charge=0 spin=0 energy=-206.89616705722534 free_energy=-206.89616705722534 stress="0.010375060141086578 2.0184084803531732e-07 2.1578221875984127e-08 2.0184084803531732e-07 0.010375219397246838 -4.692619199886394e-07 2.1578221875984127e-08 -4.692619199886394e-07 -0.0002850958553608507" pbc="T T T"
Pt      -0.00000012      -0.00000004      19.95723457        4       0.00000000      -0.00000178       0.00000566       0.01344574
Pt       2.80721395      -0.00000016      19.95723462        4       0.00000000      -0.00174118      -0.00490728       0.01744698
Pt       5.61442787      -0.00000009      19.95723469        4       0.00000000       0.00181307      -0.00372787       0.01930200
Pt       1.40360721       2.43111844      19.95723450        4       0.00000000      -0.00414676       0.00031075       0.01924248
Pt       4.21082082       2.43111841      19.95723461        4       0.00000000       0.00000323      -0.00000047       0.02532283
Pt       7.01803480       2.43111847      19.95723446        4       0.00000000       0.00513466       0.00093450       0.01743784
Pt       2.80721415       4.86223736      19.95723430        4       0.00000000      -0.00339839       0.00397719       0.01753604
Pt       5.61442796       4.86223738      19.95723451        4       0.00000000       0.00233474       0.00341970       0.01928436
Pt       8.42164141       4.86223712      19.95723445        4       0.00000000       0.00000445      -0.00000698      -0.03656546
Pt       1.40360727       0.81037260      22.29206796        3       0.00000000      -0.00070771      -0.00287906      -0.00422858
Pt       4.21082131       0.81037250      22.29206795        3       0.00000000       0.00444655      -0.01066753      -0.06767085
Pt       7.01803474       0.81037257      22.29206787        3       0.00000000       0.00282634       0.00088739      -0.00423743
Pt       2.80721448       3.24149122      22.29206776        3       0.00000000      -0.01149090       0.00147574      -0.06745970
Pt       5.61442763       3.24149122      22.29206790        3       0.00000000       0.00703849       0.00922901      -0.06747334
Pt       8.42164153       3.24149129      22.29206804        3       0.00000000      -0.00187914       0.07525879      -0.14862028
Pt       4.21082092       5.67260997      22.29206741        3       0.00000000      -0.00212639       0.00201757      -0.00400076
Pt       7.01803486       5.67261038      22.29206784        3       0.00000000       0.06611580      -0.03603074      -0.14865464
Pt       9.82524821       5.67261064      22.29206811        3       0.00000000      -0.06422664      -0.03925158      -0.14864998
Pt      -0.00000055       1.62074564      24.58417373        2       0.00000000      -0.00460900      -0.24079257       0.25752562
Pt       2.80721438       1.62074544      24.58417388        2       0.00000000      -0.00709000      -0.00738688      -0.01159751
Pt       5.61442780       1.62074536      24.58417376        2       0.00000000       0.00977242      -0.00252242      -0.01161886
Pt       1.40360636       4.05186448      24.58417388        2       0.00000000      -0.01434160       0.00985117      -0.04712690
Pt       4.21082089       4.05186396      24.58417385        2       0.00000000      -0.00271652       0.00973190      -0.01159969
Pt       7.01803505       4.05186407      24.58417401        2       0.00000000       0.01588461       0.00740730      -0.04723273
Pt       2.80721273       6.48298345      24.58417382        2       0.00000000       0.21056029       0.11631566       0.25767672
Pt       5.61442806       6.48298330      24.58417394        2       0.00000000      -0.20590444       0.12436781       0.25758475
Pt       8.42164223       6.48298339      24.58417374        2       0.00000000      -0.00153129      -0.01723100      -0.04700922
Pt       0.00000301      -0.00017566      27.13937663        1       0.00000000      -0.00001772       0.00022513       0.03368740
Pt       2.80832432      -0.00429287      26.89958817        1       0.00000000      -0.01477521       0.00190128      -0.00381922
Pt       5.61041645      -0.00295703      26.89735337        1       0.00000000       0.01552858       0.00199460      -0.00512022
Pt       1.40304519       2.43601873      26.89728858        1       0.00000000      -0.00593543      -0.01456486      -0.00506770
Pt       4.21082417       2.43110692      26.90997852        1       0.00000000      -0.00003388      -0.00009991      -0.01055563
Pt       7.02119171       2.43418018      26.89948615        1       0.00000000       0.00573432      -0.01394116      -0.00401530
Pt       2.80293833       4.86338285      26.89952095        1       0.00000000       0.00905639       0.01189839      -0.00402054
Pt       5.61901498       4.86021511      26.89728001        1       0.00000000      -0.00962617       0.01244965      -0.00497533
Pt       8.42163821       4.86221220      26.91836462        1       0.00000000       0.00004460       0.00000501      -0.01414434
C       -0.00000106       0.00004822      29.22573330        0       1.00000000       0.00002537      -0.00011660      -0.02855310
H        0.52303065      -0.90468223      29.56835557        0       0.00000000       0.00256910      -0.00404530      -0.00066862
H       -1.04517953      -0.00055592      29.56792118        0       0.00000000      -0.00459573       0.00063493      -0.00049103
H        0.52214540       0.90561844      29.56748834        0       0.00000000       0.00200286       0.00387289      -0.00031597
