40
Lattice="8.421641763931781 0.0 0.0 4.2108208819658905 7.293355709136913 0.0 0.0 0.0 46.87624170604845" Properties=species:S:1:pos:R:3:tags:I:1:initial_magmoms:R:1:forces:R:3 charge=0 spin=0 energy=-206.89809538669311 free_energy=-206.89809538669311 stress="0.010362077504396439 -1.5083757887168758e-07 5.116312706832105e-09 -1.5083757887168758e-07 0.01036351639777422 -4.72904048365308e-06 5.116312706832105e-09 -4.72904048365308e-06 -0.0003362568386364728" pbc="T T T"
Pt      -0.00000012      -0.00000004      19.95723457        4       0.00000000      -0.00000058       0.00002613       0.01324933
Pt       2.80721395      -0.00000016      19.95723462        4       0.00000000      -0.00201164      -0.00500852       0.01732695
Pt       5.61442787      -0.00000009      19.95723469        4       0.00000000       0.00202095      -0.00345460       0.01944134
Pt       1.40360721       2.43111844      19.95723450        4       0.00000000      -0.00399961       0.00001462       0.01935775
Pt       4.21082082       2.43111841      19.95723461        4       0.00000000       0.00001545      -0.00000893       0.02545413
Pt       7.01803480       2.43111847      19.95723446        4       0.00000000       0.00533967       0.00078461       0.01729626
Pt       2.80721415       4.86223736      19.95723430        4       0.00000000      -0.00333600       0.00421440       0.01742567
Pt       5.61442796       4.86223738      19.95723451        4       0.00000000       0.00198028       0.00340693       0.01940643
Pt       8.42164141       4.86223712      19.95723445        4       0.00000000       0.00000247      -0.00007305      -0.03686292
Pt       1.40360727       0.81037260      22.29206796        3       0.00000000      -0.00044740      -0.00335851      -0.00321374
Pt       4.21082131       0.81037250      22.29206795        3       0.00000000       0.00422814      -0.01116516      -0.06663474
Pt       7.01803474       0.81037257      22.29206787        3       0.00000000       0.00314746       0.00146537      -0.00319438
Pt       2.80721448       3.24149122      22.29206776        3       0.00000000      -0.01178874       0.00187830      -0.06647342
Pt       5.61442763       3.24149122      22.29206790        3       0.00000000       0.00754752       0.00923583      -0.06649329
Pt       8.42164153       3.24149129      22.29206804        3       0.00000000      -0.00174388       0.07545613      -0.15044063
Pt       4.21082092       5.67260997      22.29206741        3       0.00000000      -0.00270311       0.00195438      -0.00284050
Pt       7.01803486       5.67261038      22.29206784        3       0.00000000       0.06642688      -0.03639501      -0.15063998
Pt       9.82524821       5.67261064      22.29206811        3       0.00000000      -0.06466103      -0.03937158      -0.15057421
Pt      -0.00000055       1.62074564      24.58417373        2       0.00000000      -0.00282445      -0.24464816       0.25057250
Pt       2.80721438       1.62074544      24.58417388        2       0.00000000      -0.01015550      -0.00559041      -0.01562194
Pt       5.61442780       1.62074536      24.58417376        2       0.00000000       0.00995165      -0.00583685      -0.01565572
Pt       1.40360636       4.05186448      24.58417388        2       0.00000000      -0.01158805       0.00337034      -0.04873758
Pt       4.21082089       4.05186396      24.58417385        2       0.00000000       0.00010487       0.01213953      -0.01405452
Pt       7.01803505       4.05186407      24.58417401        2       0.00000000       0.00857142       0.00893657      -0.04884014
Pt       2.80721273       6.48298345      24.58417382        2       0.00000000       0.21173345       0.11894757       0.25115797
Pt       5.61442806       6.48298330      24.58417394        2       0.00000000      -0.20894130       0.12391385       0.25101319
Pt       8.42164223       6.48298339      24.58417374        2       0.00000000       0.00312374      -0.01155796      -0.04798794
Pt      -0.00000671      -0.00208834      27.14290004        1       0.00000000      -0.00002928       0.00400595       0.00567744
Pt       2.80627595      -0.00415039      26.89817363        1       0.00000000       0.00637012      -0.00033190      -0.00235807
Pt       5.61580511      -0.00199640      26.89830251        1       0.00000000      -0.00711745      -0.00239456      -0.00362083
Pt       1.40031528       2.43104674      26.89793992        1       0.00000000       0.00435668       0.00559737      -0.00284936
Pt       4.21082920       2.43130587      26.90565131        1       0.00000000      -0.00006311      -0.00014255      -0.00070517
Pt       7.02293803       2.43252803      26.89781976        1       0.00000000      -0.00568158       0.00384289      -0.00173905
Pt       2.80305150       4.86530228      26.89833098        1       0.00000000      -0.00021838      -0.00701393      -0.00305656
Pt       5.61652201       4.86464154      26.89837984        1       0.00000000       0.00237922      -0.00671117      -0.00418809
Pt       8.42164942       4.86235484      26.91250802        1       0.00000000      -0.00000407      -0.00004563       0.00136488
C       -0.00000269      -0.00079110      29.22671130        0       1.00000000       0.00000794       0.00223677      -0.02302248
H        0.90590076       0.52283690      29.56524335        0       0.00000000       0.00078495       0.00012626       0.01092957
H       -0.00043851      -1.04535290      29.57113859        0       0.00000000      -0.00049819       0.00096278      -0.00078959
H       -0.90543771       0.52365894      29.56523628        0       0.00000000      -0.00027926       0.00059185       0.01092149
