40
Lattice="8.421641763931781 0.0 0.0 4.2108208819658905 7.293355709136913 0.0 0.0 0.0 46.87624170604845" Properties=species:S:1:pos:R:3:tags:I:1:initial_magmoms:R:1:forces:R:3 charge=0 spin=0 energy=-206.8961708719226 free_energy=-206.8961708719226 stress="0.010375075973570347 2.0349742158032313e-07 1.2236251123454167e-08 2.0349742158032313e-07 0.01037521194666624 -4.651432448099513e-07 1.2236251123454167e-08 -4.651432448099513e-07 -0.0002851098543033004" pbc="T T T"
Pt      -0.00000012      -0.00000004      19.95723457        4       0.00000000      -0.00000181       0.00000550       0.01344579
Pt       2.80721395      -0.00000016      19.95723462        4       0.00000000      -0.00174100      -0.00490727       0.01744688
Pt       5.61442787      -0.00000009      19.95723469        4       0.00000000       0.00181306      -0.00372783       0.01930192
Pt       1.40360721       2.43111844      19.95723450        4       0.00000000      -0.00414673       0.00031070       0.01924240
Pt       4.21082082       2.43111841      19.95723461        4       0.00000000       0.00000326      -0.00000062       0.02532281
Pt       7.01803480       2.43111847      19.95723446        4       0.00000000       0.00513458       0.00093455       0.01743793
Pt       2.80721415       4.86223736      19.95723430        4       0.00000000      -0.00339834       0.00397730       0.01753600
Pt       5.61442796       4.86223738      19.95723451        4       0.00000000       0.00233455       0.00341965       0.01928432
Pt       8.42164141       4.86223712      19.95723445        4       0.00000000       0.00000440      -0.00000697      -0.03656569
Pt       1.40360727       0.81037260      22.29206796        3       0.00000000      -0.00070785      -0.00287864      -0.00422903
Pt       4.21082131       0.81037250      22.29206795        3       0.00000000       0.00444606      -0.01066753      -0.06767059
Pt       7.01803474       0.81037257      22.29206787        3       0.00000000       0.00282630       0.00088755      -0.00423737
Pt       2.80721448       3.24149122      22.29206776        3       0.00000000      -0.01149108       0.00147598      -0.06745909
Pt       5.61442763       3.24149122      22.29206790        3       0.00000000       0.00703853       0.00922930      -0.06747310
Pt       8.42164153       3.24149129      22.29206804        3       0.00000000      -0.00187925       0.07525960      -0.14862116
Pt       4.21082092       5.67260997      22.29206741        3       0.00000000      -0.00212617       0.00201779      -0.00400073
Pt       7.01803486       5.67261038      22.29206784        3       0.00000000       0.06611563      -0.03603051      -0.14865464
Pt       9.82524821       5.67261064      22.29206811        3       0.00000000      -0.06422666      -0.03925149      -0.14864969
Pt      -0.00000055       1.62074564      24.58417373        2       0.00000000      -0.00461013      -0.24079478       0.25752553
Pt       2.80721438       1.62074544      24.58417388        2       0.00000000      -0.00708888      -0.00738823      -0.01160008
Pt       5.61442780       1.62074536      24.58417376        2       0.00000000       0.00977272      -0.00252265      -0.01161966
Pt       1.40360636       4.05186448      24.58417388        2       0.00000000      -0.01434085       0.00985164      -0.04713129
Pt       4.21082089       4.05186396      24.58417385        2       0.00000000      -0.00271644       0.00973228      -0.01160044
Pt       7.01803505       4.05186407      24.58417401        2       0.00000000       0.01588353       0.00740631      -0.04723329
Pt       2.80721273       6.48298345      24.58417382        2       0.00000000       0.21056168       0.11631628       0.25767869
Pt       5.61442806       6.48298330      24.58417394        2       0.00000000      -0.20590505       0.12436807       0.25758630
Pt       8.42164223       6.48298339      24.58417374        2       0.00000000      -0.00153111      -0.01722964      -0.04701197
Pt       0.00000328      -0.00017503      27.13937671        1       0.00000000      -0.00001693       0.00022118       0.03366998
Pt       2.80832438      -0.00429264      26.89958806        1       0.00000000      -0.01477758       0.00190050      -0.00381912
Pt       5.61041651      -0.00295697      26.89735355        1       0.00000000       0.01553025       0.00199463      -0.00511976
Pt       1.40304548       2.43601879      26.89728825        1       0.00000000      -0.00593596      -0.01456663      -0.00506051
Pt       4.21082410       2.43110687      26.90997818        1       0.00000000      -0.00003289      -0.00010035      -0.01055495
Pt       7.02119167       2.43417995      26.89948599        1       0.00000000       0.00573437      -0.01394197      -0.00401532
Pt       2.80293791       4.86338255      26.89952065        1       0.00000000       0.00905812       0.01190228      -0.00402032
Pt       5.61901528       4.86021483      26.89727987        1       0.00000000      -0.00962720       0.01245218      -0.00497526
Pt       8.42163842       4.86221196      26.91836416        1       0.00000000       0.00004423       0.00000489      -0.01413868
C       -0.00000017       0.00004782      29.22573209        0       1.00000000      -0.00005365      -0.00009884      -0.02850904
H       -1.04518024      -0.00055576      29.56792200        0       0.00000000      -0.00453145       0.00063070      -0.00051707
H        0.52214512       0.90561840      29.56748940        0       0.00000000       0.00200858       0.00387008      -0.00032108
H        0.52303055      -0.90468218      29.56835717        0       0.00000000       0.00257714      -0.00405523      -0.00066959
