40
Lattice="8.421641763931781 0.0 0.0 4.2108208819658905 7.293355709136913 0.0 0.0 0.0 46.87624170604845" Properties=species:S:1:pos:R:3:tags:I:1:initial_magmoms:R:1:forces:R:3 charge=0 spin=0 energy=-206.89795042819702 free_energy=-206.89795042819702 stress="0.010357297956943512 -6.088276194304854e-08 -2.2830202173196312e-09 -6.088276194304854e-08 0.010355479083955288 -2.8708536774502136e-06 -2.2830202173196312e-09 -2.8708536774502136e-06 -0.0003519811434671283" pbc="T T T"
Pt      -0.00000012      -0.00000004      19.95723457        4       0.00000000       0.00000544       0.00003346       0.01322060
Pt       2.80721395      -0.00000016      19.95723462        4       0.00000000      -0.00193094      -0.00484229       0.01727459
Pt       5.61442787      -0.00000009      19.95723469        4       0.00000000       0.00198460      -0.00339469       0.01937488
Pt       1.40360721       2.43111844      19.95723450        4       0.00000000      -0.00387142      -0.00004972       0.01925037
Pt       4.21082082       2.43111841      19.95723461        4       0.00000000       0.00002807      -0.00001497       0.02528265
Pt       7.01803480       2.43111847      19.95723446        4       0.00000000       0.00510150       0.00069577       0.01720076
Pt       2.80721415       4.86223736      19.95723430        4       0.00000000      -0.00317570       0.00404674       0.01732718
Pt       5.61442796       4.86223738      19.95723451        4       0.00000000       0.00190162       0.00331482       0.01930043
Pt       8.42164141       4.86223712      19.95723445        4       0.00000000      -0.00000133      -0.00017318      -0.03670490
Pt       1.40360727       0.81037260      22.29206796        3       0.00000000      -0.00035223      -0.00342608      -0.00273275
Pt       4.21082131       0.81037250      22.29206795        3       0.00000000       0.00445822      -0.01138301      -0.06719112
Pt       7.01803474       0.81037257      22.29206787        3       0.00000000       0.00308889       0.00148093      -0.00275430
Pt       2.80721448       3.24149122      22.29206776        3       0.00000000      -0.01208443       0.00174942      -0.06724998
Pt       5.61442763       3.24149122      22.29206790        3       0.00000000       0.00758282       0.00947601      -0.06725685
Pt       8.42164153       3.24149129      22.29206804        3       0.00000000      -0.00184353       0.07541964      -0.15036432
Pt       4.21082092       5.67260997      22.29206741        3       0.00000000      -0.00275895       0.00180660      -0.00233430
Pt       7.01803486       5.67261038      22.29206784        3       0.00000000       0.06681986      -0.03663498      -0.15041357
Pt       9.82524821       5.67261064      22.29206811        3       0.00000000      -0.06494952      -0.03976469      -0.15033139
Pt      -0.00000055       1.62074564      24.58417373        2       0.00000000      -0.00281165      -0.24463052       0.25446734
Pt       2.80721438       1.62074544      24.58417388        2       0.00000000      -0.00859067      -0.00464171      -0.02166037
Pt       5.61442780       1.62074536      24.58417376        2       0.00000000       0.00836343      -0.00489763      -0.02165095
Pt       1.40360636       4.05186448      24.58417388        2       0.00000000      -0.01192118       0.00513242      -0.04682267
Pt       4.21082089       4.05186396      24.58417385        2       0.00000000       0.00013864       0.00953543      -0.02139439
Pt       7.01803505       4.05186407      24.58417401        2       0.00000000       0.01004703       0.00873392      -0.04697963
Pt       2.80721273       6.48298345      24.58417382        2       0.00000000       0.21195470       0.11999758       0.25289845
Pt       5.61442806       6.48298330      24.58417394        2       0.00000000      -0.20913905       0.12494828       0.25270528
Pt       8.42164223       6.48298339      24.58417374        2       0.00000000       0.00195670      -0.01235929      -0.04577872
Pt      -0.00002470      -0.00371674      27.14350364        1       0.00000000       0.00007927       0.01766535      -0.01279958
Pt       2.80654256      -0.00282913      26.89802632        1       0.00000000       0.00422663      -0.00422782      -0.00174910
Pt       5.61504901      -0.00110774      26.89773646        1       0.00000000      -0.00423836      -0.00496492      -0.00110339
Pt       1.40189638       2.43191998      26.89729497        1       0.00000000      -0.00378066       0.00206239      -0.00062669
Pt       4.21080010       2.43145180      26.90537393        1       0.00000000       0.00014687      -0.00092552       0.00430232
Pt       7.02129074       2.43277063      26.89753152        1       0.00000000       0.00287767       0.00154063      -0.00129215
Pt       2.80446716       4.86509538      26.89788465        1       0.00000000      -0.00710373      -0.00567781      -0.00112983
Pt       5.61572489       4.86422806      26.89752585        1       0.00000000       0.00771715      -0.00537795      -0.00051524
Pt       8.42164253       4.86257497      26.91409799        1       0.00000000       0.00009762      -0.00093885      -0.00598978
C        0.00001538      -0.00121936      29.22529068        0       1.00000000      -0.00045625       0.00637238       0.01185141
H       -0.90538538      -0.52210840      29.56918716        0       0.00000000      -0.00646986      -0.00676410       0.00022971
H        0.00055529       1.04430763      29.56636029        0       0.00000000       0.00050738       0.00798702       0.00174291
H        0.90480239      -0.52317114      29.56917280        0       0.00000000       0.00639538      -0.00690905       0.00039688
