40
Lattice="8.421641763931781 0.0 0.0 4.2108208819658905 7.293355709136913 0.0 0.0 0.0 46.87624170604845" Properties=species:S:1:pos:R:3:tags:I:1:initial_magmoms:R:1:forces:R:3 charge=0 spin=0 energy=-206.89639975375854 free_energy=-206.89639975375854 stress="0.010357808321714401 1.0132075800584062e-07 -1.0893136170864182e-08 1.0132075800584062e-07 0.010357968509197235 -1.922836929679761e-07 -1.0893136170864182e-08 -1.922836929679761e-07 -0.0003387172182556242" pbc="T T T"
Pt      -0.00000012      -0.00000004      19.95723457        4       0.00000000      -0.00000199       0.00000637       0.01323749
Pt       2.80721395      -0.00000016      19.95723462        4       0.00000000      -0.00199546      -0.00478687       0.01739881
Pt       5.61442787      -0.00000009      19.95723469        4       0.00000000       0.00195992      -0.00351693       0.01924823
Pt       1.40360721       2.43111844      19.95723450        4       0.00000000      -0.00403833       0.00008022       0.01918994
Pt       4.21082082       2.43111841      19.95723461        4       0.00000000       0.00000248       0.00000016       0.02534406
Pt       7.01803480       2.43111847      19.95723446        4       0.00000000       0.00515952       0.00065619       0.01739037
Pt       2.80721415       4.86223736      19.95723430        4       0.00000000      -0.00317008       0.00413741       0.01749060
Pt       5.61442796       4.86223738      19.95723451        4       0.00000000       0.00207978       0.00344123       0.01923353
Pt       8.42164141       4.86223712      19.95723445        4       0.00000000       0.00000387      -0.00000685      -0.03679924
Pt       1.40360727       0.81037260      22.29206796        3       0.00000000      -0.00051307      -0.00279730      -0.00272742
Pt       4.21082131       0.81037250      22.29206795        3       0.00000000       0.00453747      -0.01114506      -0.06708255
Pt       7.01803474       0.81037257      22.29206787        3       0.00000000       0.00265889       0.00101607      -0.00274884
Pt       2.80721448       3.24149122      22.29206776        3       0.00000000      -0.01194622       0.00164130      -0.06686731
Pt       5.61442763       3.24149122      22.29206790        3       0.00000000       0.00740970       0.00954532      -0.06688528
Pt       8.42164153       3.24149129      22.29206804        3       0.00000000      -0.00187982       0.07582866      -0.15043661
Pt       4.21082092       5.67260997      22.29206741        3       0.00000000      -0.00215330       0.00180730      -0.00249965
Pt       7.01803486       5.67261038      22.29206784        3       0.00000000       0.06660784      -0.03631063      -0.15046763
Pt       9.82524821       5.67261064      22.29206811        3       0.00000000      -0.06471685      -0.03953490      -0.15046385
Pt      -0.00000055       1.62074564      24.58417373        2       0.00000000      -0.00457766      -0.24401633       0.25212127
Pt       2.80721438       1.62074544      24.58417388        2       0.00000000      -0.00774462      -0.00833815      -0.01743417
Pt       5.61442780       1.62074536      24.58417376        2       0.00000000       0.01091029      -0.00260738      -0.01746538
Pt       1.40360636       4.05186448      24.58417388        2       0.00000000      -0.00893572       0.00662468      -0.04887451
Pt       4.21082089       4.05186396      24.58417385        2       0.00000000      -0.00322875       0.01074976      -0.01742791
Pt       7.01803505       4.05186407      24.58417401        2       0.00000000       0.01040788       0.00432422      -0.04897975
Pt       2.80721273       6.48298345      24.58417382        2       0.00000000       0.21335094       0.11793996       0.25228167
Pt       5.61442806       6.48298330      24.58417394        2       0.00000000      -0.20871206       0.12596446       0.25219625
Pt       8.42164223       6.48298339      24.58417374        2       0.00000000      -0.00147285      -0.01096589      -0.04878513
Pt      -0.00000262      -0.00016682      27.14295978        1       0.00000000       0.00001293       0.00018354       0.00644527
Pt       2.80490549      -0.00437750      26.89929742        1       0.00000000       0.00533450       0.00134304      -0.00272118
Pt       5.61405419      -0.00222027      26.89680841        1       0.00000000      -0.00525648      -0.00070394      -0.00272385
Pt       1.40188121       2.43247963      26.89676138        1       0.00000000       0.00204991       0.00477801      -0.00291681
Pt       4.21082003       2.43108919      26.90577427        1       0.00000000      -0.00001804      -0.00003806       0.00101187
Pt       7.02296853       2.43123243      26.89919316        1       0.00000000      -0.00382474       0.00393066      -0.00256335
Pt       2.80458347       4.86638594      26.89923260        1       0.00000000      -0.00150416      -0.00537439      -0.00275718
Pt       5.61653983       4.86298731      26.89673779        1       0.00000000       0.00319450      -0.00416431      -0.00299455
Pt       8.42164423       4.86220420      26.91168151        1       0.00000000       0.00000612      -0.00001894       0.00235502
C       -0.00000256       0.00006964      29.22682940        0       1.00000000      -0.00006959      -0.00018053      -0.01422829
H       -1.04527157       0.00062344      29.56852677        0       0.00000000      -0.00562433       0.00033351       0.00394191
H        0.52314385       0.90516372      29.56809346        0       0.00000000       0.00275529       0.00501522       0.00416212
H        0.52212165      -0.90529659      29.56894282        0       0.00000000       0.00294264      -0.00484088       0.00380236
