40
Lattice="8.421641763931781 0.0 0.0 4.2108208819658905 7.293355709136913 0.0 0.0 0.0 46.87624170604845" Properties=species:S:1:pos:R:3:tags:I:1:initial_magmoms:R:1:forces:R:3 charge=0 spin=0 energy=-206.89610983676636 free_energy=-206.89610983676636 stress="0.010364201851189137 1.2470538024444977e-07 1.3022421363473313e-08 1.2470538024444977e-07 0.010364366695284843 -4.1746864098968217e-07 1.3022421363473313e-08 -4.1746864098968217e-07 -0.0003273632319178432" pbc="T T T"
Pt      -0.00000012      -0.00000004      19.95723457        4       0.00000000      -0.00000187       0.00000558       0.01358974
Pt       2.80721395      -0.00000016      19.95723462        4       0.00000000      -0.00178975      -0.00489159       0.01722712
Pt       5.61442787      -0.00000009      19.95723469        4       0.00000000       0.00184485      -0.00364394       0.01908648
Pt       1.40360721       2.43111844      19.95723450        4       0.00000000      -0.00409018       0.00024141       0.01902904
Pt       4.21082082       2.43111841      19.95723461        4       0.00000000       0.00000229      -0.00000068       0.02544189
Pt       7.01803480       2.43111847      19.95723446        4       0.00000000       0.00514618       0.00088353       0.01721925
Pt       2.80721415       4.86223736      19.95723430        4       0.00000000      -0.00336121       0.00401106       0.01731726
Pt       5.61442796       4.86223738      19.95723451        4       0.00000000       0.00224562       0.00340475       0.01907109
Pt       8.42164141       4.86223712      19.95723445        4       0.00000000       0.00000462      -0.00000449      -0.03645283
Pt       1.40360727       0.81037260      22.29206796        3       0.00000000      -0.00059015      -0.00292908      -0.00398149
Pt       4.21082131       0.81037250      22.29206795        3       0.00000000       0.00450467      -0.01092568      -0.06746459
Pt       7.01803474       0.81037257      22.29206787        3       0.00000000       0.00280721       0.00101179      -0.00399301
Pt       2.80721448       3.24149122      22.29206776        3       0.00000000      -0.01174029       0.00155153      -0.06724658
Pt       5.61442763       3.24149122      22.29206790        3       0.00000000       0.00723144       0.00940567      -0.06726310
Pt       8.42164153       3.24149129      22.29206804        3       0.00000000      -0.00189924       0.07547508      -0.14932272
Pt       4.21082092       5.67260997      22.29206741        3       0.00000000      -0.00222396       0.00193957      -0.00375447
Pt       7.01803486       5.67261038      22.29206784        3       0.00000000       0.06630822      -0.03611823      -0.14935116
Pt       9.82524821       5.67261064      22.29206811        3       0.00000000      -0.06439975      -0.03937535      -0.14934355
Pt      -0.00000055       1.62074564      24.58417373        2       0.00000000      -0.00533727      -0.24700525       0.25662708
Pt       2.80721438       1.62074544      24.58417388        2       0.00000000      -0.00422855      -0.00634641      -0.01665195
Pt       5.61442780       1.62074536      24.58417376        2       0.00000000       0.00745981      -0.00052053      -0.01666497
Pt       1.40360636       4.05186448      24.58417388        2       0.00000000      -0.01651838       0.01168022      -0.05049138
Pt       4.21082089       4.05186396      24.58417385        2       0.00000000      -0.00328369       0.00674255      -0.01663615
Pt       7.01803505       4.05186407      24.58417401        2       0.00000000       0.01856908       0.00836967      -0.05059647
Pt       2.80721273       6.48298345      24.58417382        2       0.00000000       0.21633507       0.11879119       0.25673556
Pt       5.61442806       6.48298330      24.58417394        2       0.00000000      -0.21094912       0.12811513       0.25663823
Pt       8.42164223       6.48298339      24.58417374        2       0.00000000      -0.00203633      -0.02004391      -0.05044023
Pt       0.00000026      -0.00013460      27.14583897        1       0.00000000       0.00000116       0.00006418      -0.01022441
Pt       2.80842600      -0.00360204      26.89736574        1       0.00000000      -0.01635222      -0.00214655       0.00531449
Pt       5.61097822      -0.00253755      26.89420328        1       0.00000000       0.01543922      -0.00126771       0.00725893
Pt       1.40313009       2.43532983      26.89416424        1       0.00000000      -0.00873495      -0.01281236       0.00722428
Pt       4.21082071       2.43110319      26.91232513        1       0.00000000      -0.00001679      -0.00004345      -0.01693670
Pt       7.02054605       2.43392630      26.89729333        1       0.00000000       0.00995942      -0.01320989       0.00499956
Pt       2.80348402       4.86296116      26.89732479        1       0.00000000       0.00640114       0.01525083       0.00504738
Pt       5.61836437       4.86049834      26.89414365        1       0.00000000      -0.00671834       0.01399334       0.00733488
Pt       8.42164430       4.86222199      26.92030233        1       0.00000000       0.00001314      -0.00003333      -0.02096088
C       -0.00000092       0.00001802      29.22939318        0       1.00000000       0.00002762       0.00004182      -0.02151266
H        0.52274171      -0.90479417      29.57151578        0       0.00000000       0.00579992      -0.00992758       0.00457664
H       -1.04508994      -0.00024219      29.57112061        0       0.00000000      -0.01149867       0.00033263       0.00471400
H        0.52234542       0.90535254      29.57072917        0       0.00000000       0.00566976       0.00993435       0.00483637
