40
Lattice="8.421641763931781 0.0 0.0 4.2108208819658905 7.293355709136913 0.0 0.0 0.0 46.87624170604845" Properties=species:S:1:pos:R:3:tags:I:1:initial_magmoms:R:1:forces:R:3 charge=0 spin=0 energy=-206.89771391696655 free_energy=-206.89771391696655 stress="0.010364538989961147 1.0088210267156228e-08 -1.4729162334248258e-10 1.0088210267156228e-08 0.010364670306444168 2.2437302504840773e-07 -1.4729162334248258e-10 2.2437302504840773e-07 -0.00032578513491898775" pbc="T T T"
Pt      -0.00000012      -0.00000004      19.95723457        4       0.00000000      -0.00000215       0.00000366       0.01352683
Pt       2.80721395      -0.00000016      19.95723462        4       0.00000000      -0.00176642      -0.00484144       0.01707822
Pt       5.61442787      -0.00000009      19.95723469        4       0.00000000       0.00187136      -0.00344080       0.01921275
Pt       1.40360721       2.43111844      19.95723450        4       0.00000000      -0.00392871       0.00011878       0.01915743
Pt       4.21082082       2.43111841      19.95723461        4       0.00000000       0.00000142      -0.00000054       0.02539429
Pt       7.01803480       2.43111847      19.95723446        4       0.00000000       0.00509473       0.00087970       0.01707082
Pt       2.80721415       4.86223736      19.95723430        4       0.00000000      -0.00333260       0.00396811       0.01716876
Pt       5.61442796       4.86223738      19.95723451        4       0.00000000       0.00205858       0.00332856       0.01920018
Pt       8.42164141       4.86223712      19.95723445        4       0.00000000       0.00000362      -0.00000469      -0.03641169
Pt       1.40360727       0.81037260      22.29206796        3       0.00000000      -0.00047634      -0.00356927      -0.00393796
Pt       4.21082131       0.81037250      22.29206795        3       0.00000000       0.00439283      -0.01119470      -0.06744993
Pt       7.01803474       0.81037257      22.29206787        3       0.00000000       0.00330254       0.00142179      -0.00395386
Pt       2.80721448       3.24149122      22.29206776        3       0.00000000      -0.01191395       0.00178296      -0.06723135
Pt       5.61442763       3.24149122      22.29206790        3       0.00000000       0.00752114       0.00944572      -0.06725252
Pt       8.42164153       3.24149129      22.29206804        3       0.00000000      -0.00181578       0.07551351      -0.14930186
Pt       4.21082092       5.67260997      22.29206741        3       0.00000000      -0.00283075       0.00216461      -0.00371452
Pt       7.01803486       5.67261038      22.29206784        3       0.00000000       0.06628548      -0.03620114      -0.14932656
Pt       9.82524821       5.67261064      22.29206811        3       0.00000000      -0.06446112      -0.03931224      -0.14932126
Pt      -0.00000055       1.62074564      24.58417373        2       0.00000000      -0.00309419      -0.24661946       0.25709790
Pt       2.80721438       1.62074544      24.58417388        2       0.00000000      -0.00412036      -0.00201517      -0.01768669
Pt       5.61442780       1.62074536      24.58417376        2       0.00000000       0.00363299      -0.00261746      -0.01769949
Pt       1.40360636       4.05186448      24.58417388        2       0.00000000      -0.01752422       0.00771743      -0.04999121
Pt       4.21082089       4.05186396      24.58417385        2       0.00000000       0.00041997       0.00447876      -0.01764385
Pt       7.01803505       4.05186407      24.58417401        2       0.00000000       0.01566377       0.01120871      -0.05012931
Pt       2.80721273       6.48298345      24.58417382        2       0.00000000       0.21498872       0.12057249       0.25747952
Pt       5.61442806       6.48298330      24.58417394        2       0.00000000      -0.21186125       0.12601630       0.25736097
Pt       8.42164223       6.48298339      24.58417374        2       0.00000000       0.00189025      -0.01895726      -0.04998047
Pt       0.00000023       0.00003720      27.14560206        1       0.00000000      -0.00000365      -0.00009784      -0.00959816
Pt       2.80971828      -0.00333214      26.89599563        1       0.00000000      -0.01562196      -0.00264730       0.00641126
Pt       5.61218367      -0.00219257      26.89569787        1       0.00000000       0.01470710      -0.00188535       0.00688904
Pt       1.40284814       2.43408700      26.89565093        1       0.00000000      -0.00886630      -0.01174611       0.00671319
Pt       4.21082054       2.43108573      26.91321696        1       0.00000000      -0.00001809       0.00003138      -0.01895419
Pt       7.01964173       2.43488140      26.89592888        1       0.00000000       0.00996461      -0.01216621       0.00616179
Pt       2.80310222       4.86168133      26.89597126        1       0.00000000       0.00569071       0.01507060       0.00611497
Pt       5.61743724       4.86133869      26.89562921        1       0.00000000      -0.00587304       0.01390948       0.00655762
Pt       8.42164493       4.86220559      26.91986539        1       0.00000000       0.00001632       0.00004859      -0.01997113
C       -0.00000424       0.00035342      29.22906220        0       1.00000000       0.00000627      -0.00017591      -0.02308762
H       -0.00031668       1.04542363      29.57069879        0       0.00000000       0.00023229       0.01274865       0.00448141
H        0.90519401      -0.52187927      29.57077455        0       0.00000000       0.01102059      -0.00665210       0.00478362
H       -0.90489339      -0.52241572      29.57077256        0       0.00000000      -0.01125447      -0.00628457       0.00478300
