40
Lattice="8.421641763931781 0.0 0.0 4.2108208819658905 7.293355709136913 0.0 0.0 0.0 46.87624170604845" Properties=species:S:1:pos:R:3:tags:I:1:initial_magmoms:R:1:forces:R:3 charge=0 spin=0 energy=-206.89809347934448 free_energy=-206.89809347934448 stress="0.010355999693274498 -5.030774374858993e-08 1.9004302131975237e-08 -5.030774374858993e-08 0.0103549063205719 2.7557746307138586e-06 1.9004302131975237e-08 2.7557746307138586e-06 -0.0003516842843964696" pbc="T T T"
Pt      -0.00000012      -0.00000004      19.95723457        4       0.00000000      -0.00000928      -0.00002561       0.01328232
Pt       2.80721395      -0.00000016      19.95723462        4       0.00000000      -0.00192266      -0.00497097       0.01727519
Pt       5.61442787      -0.00000009      19.95723469        4       0.00000000       0.00194707      -0.00340477       0.01934361
Pt       1.40360721       2.43111844      19.95723450        4       0.00000000      -0.00401345       0.00006465       0.01935442
Pt       4.21082082       2.43111841      19.95723461        4       0.00000000      -0.00002430       0.00000702       0.02543036
Pt       7.01803480       2.43111847      19.95723446        4       0.00000000       0.00536807       0.00083397       0.01733704
Pt       2.80721415       4.86223736      19.95723430        4       0.00000000      -0.00342962       0.00423298       0.01741202
Pt       5.61442796       4.86223738      19.95723451        4       0.00000000       0.00203729       0.00347053       0.01939995
Pt       8.42164141       4.86223712      19.95723445        4       0.00000000       0.00001021       0.00018097      -0.03683370
Pt       1.40360727       0.81037260      22.29206796        3       0.00000000      -0.00026403      -0.00333326      -0.00310615
Pt       4.21082131       0.81037250      22.29206795        3       0.00000000       0.00425355      -0.01101449      -0.06698261
Pt       7.01803474       0.81037257      22.29206787        3       0.00000000       0.00300743       0.00143448      -0.00315020
Pt       2.80721448       3.24149122      22.29206776        3       0.00000000      -0.01170901       0.00189631      -0.06656168
Pt       5.61442763       3.24149122      22.29206790        3       0.00000000       0.00749513       0.00935058      -0.06662175
Pt       8.42164153       3.24149129      22.29206804        3       0.00000000      -0.00178675       0.07622647      -0.15047207
Pt       4.21082092       5.67260997      22.29206741        3       0.00000000      -0.00272177       0.00199596      -0.00316208
Pt       7.01803486       5.67261038      22.29206784        3       0.00000000       0.06625593      -0.03610250      -0.15047976
Pt       9.82524821       5.67261064      22.29206811        3       0.00000000      -0.06449266      -0.03917807      -0.15055162
Pt      -0.00000055       1.62074564      24.58417373        2       0.00000000      -0.00312674      -0.24350366       0.25029114
Pt       2.80721438       1.62074544      24.58417388        2       0.00000000      -0.01090655      -0.00694050      -0.01875770
Pt       5.61442780       1.62074536      24.58417376        2       0.00000000       0.01085601      -0.00669098      -0.01872669
Pt       1.40360636       4.05186448      24.58417388        2       0.00000000      -0.01409410       0.00416382      -0.04719340
Pt       4.21082089       4.05186396      24.58417385        2       0.00000000      -0.00007212       0.01282091      -0.01924901
Pt       7.01803505       4.05186407      24.58417401        2       0.00000000       0.01151965       0.00891550      -0.04737784
Pt       2.80721273       6.48298345      24.58417382        2       0.00000000       0.21316366       0.11898725       0.25235176
Pt       5.61442806       6.48298330      24.58417394        2       0.00000000      -0.20996951       0.12462322       0.25216958
Pt       8.42164223       6.48298339      24.58417374        2       0.00000000       0.00262564      -0.01428792      -0.04740297
Pt       0.00002885       0.00374388      27.14358445        1       0.00000000      -0.00012647      -0.01778317      -0.01335839
Pt       2.80667930      -0.00455778      26.89793872        1       0.00000000       0.00397666      -0.00298036      -0.00142676
Pt       5.61533542      -0.00287265      26.89751849        1       0.00000000      -0.00436137      -0.00376925      -0.00078558
Pt       1.40121133       2.43095452      26.89759429        1       0.00000000       0.00002523       0.00955930      -0.00070880
Pt       4.21081888       2.43077580      26.90435637        1       0.00000000      -0.00006598       0.00080611       0.00515569
Pt       7.02168256       2.43211232      26.89800842        1       0.00000000      -0.00039126       0.00883084      -0.00153392
Pt       2.80411363       4.86412892      26.89774185        1       0.00000000      -0.00287533       0.00255733      -0.00178825
Pt       5.61586724       4.86360369      26.89718901        1       0.00000000       0.00393418       0.00257046      -0.00074890
Pt       8.42167174       4.86188662      26.91484771        1       0.00000000      -0.00013627       0.00110518      -0.00658030
C       -0.00001471       0.00123168      29.22518241        0       1.00000000       0.00051397      -0.00652103       0.01250016
H        0.90553408       0.52185717      29.56909560        0       0.00000000       0.00698503       0.00693817       0.00021760
H       -0.00084756      -1.04429137      29.56627983        0       0.00000000      -0.00064625      -0.00846592       0.00162478
H       -0.90466074       0.52341764      29.56907909        0       0.00000000      -0.00682919       0.00740054       0.00041461
