40
Lattice="8.421641763931781 0.0 0.0 4.2108208819658905 7.293355709136913 0.0 0.0 0.0 46.87624170604845" Properties=species:S:1:pos:R:3:tags:I:1:initial_magmoms:R:1:forces:R:3 charge=0 spin=0 energy=-206.89628340549194 free_energy=-206.89628340549194 stress="0.010364431887865067 4.8391743945330745e-08 -6.131013918775352e-09 4.8391743945330745e-08 0.010364369489252567 1.1122358500870178e-07 -6.131013918775352e-09 1.1122358500870178e-07 -0.0003273036563768983" pbc="T T T"
Pt      -0.00000012      -0.00000004      19.95723457        4       0.00000000      -0.00000198       0.00000190       0.01356406
Pt       2.80721395      -0.00000016      19.95723462        4       0.00000000      -0.00175239      -0.00508934       0.01698539
Pt       5.61442787      -0.00000009      19.95723469        4       0.00000000       0.00190854      -0.00339236       0.01938922
Pt       1.40360721       2.43111844      19.95723450        4       0.00000000      -0.00390316       0.00005396       0.01933784
Pt       4.21082082       2.43111841      19.95723461        4       0.00000000       0.00000128      -0.00000347       0.02549280
Pt       7.01803480       2.43111847      19.95723446        4       0.00000000       0.00529972       0.00100678       0.01698045
Pt       2.80721415       4.86223736      19.95723430        4       0.00000000      -0.00354963       0.00407525       0.01707584
Pt       5.61442796       4.86223738      19.95723451        4       0.00000000       0.00199527       0.00333412       0.01937948
Pt       8.42164141       4.86223712      19.95723445        4       0.00000000       0.00000412       0.00000723      -0.03659818
Pt       1.40360727       0.81037260      22.29206796        3       0.00000000      -0.00025237      -0.00409214      -0.00410175
Pt       4.21082131       0.81037250      22.29206795        3       0.00000000       0.00407587      -0.01125157      -0.06719285
Pt       7.01803474       0.81037257      22.29206787        3       0.00000000       0.00363055       0.00185738      -0.00412639
Pt       2.80721448       3.24149122      22.29206776        3       0.00000000      -0.01179895       0.00207093      -0.06696247
Pt       5.61442763       3.24149122      22.29206790        3       0.00000000       0.00772117       0.00918293      -0.06698453
Pt       8.42164153       3.24149129      22.29206804        3       0.00000000      -0.00167100       0.07535055      -0.14944115
Pt       4.21082092       5.67260997      22.29206741        3       0.00000000      -0.00338109       0.00220762      -0.00391461
Pt       7.01803486       5.67261038      22.29206784        3       0.00000000       0.06605972      -0.03624719      -0.14943202
Pt       9.82524821       5.67261064      22.29206811        3       0.00000000      -0.06438055      -0.03911278      -0.14943175
Pt      -0.00000055       1.62074564      24.58417373        2       0.00000000      -0.00123141      -0.24653094       0.25647652
Pt       2.80721438       1.62074544      24.58417388        2       0.00000000      -0.00792090      -0.00026561      -0.01631722
Pt       5.61442780       1.62074536      24.58417376        2       0.00000000       0.00407271      -0.00669365      -0.01632654
Pt       1.40360636       4.05186448      24.58417388        2       0.00000000      -0.02089380       0.00435361      -0.05072480
Pt       4.21082089       4.05186396      24.58417385        2       0.00000000       0.00378766       0.00690686      -0.01639861
Pt       7.01803505       4.05186407      24.58417401        2       0.00000000       0.01442500       0.01580691      -0.05084679
Pt       2.80721273       6.48298345      24.58417382        2       0.00000000       0.21398571       0.12225515       0.25656298
Pt       5.61442806       6.48298330      24.58417394        2       0.00000000      -0.21273045       0.12446102       0.25645116
Pt       8.42164223       6.48298339      24.58417374        2       0.00000000       0.00648400      -0.02012820      -0.05068710
Pt      -0.00000063       0.00011475      27.14586841        1       0.00000000      -0.00000597      -0.00015897      -0.01028284
Pt       2.81108667      -0.00380774      26.89463118        1       0.00000000      -0.01649359      -0.00185272       0.00678644
Pt       5.61365539      -0.00266775      26.89699384        1       0.00000000       0.01535201      -0.00103870       0.00589710
Pt       1.40168003       2.43314098      26.89696717        1       0.00000000      -0.00864043      -0.01281682       0.00563728
Pt       4.21082026       2.43113156      26.91158888        1       0.00000000      -0.00001077       0.00001785      -0.01660377
Pt       7.01939146       2.43640073      26.89458744        1       0.00000000       0.00986943      -0.01339121       0.00658052
Pt       2.80199116       4.86083350      26.89457818        1       0.00000000       0.00662659       0.01531695       0.00678439
Pt       5.61711808       4.86295639      26.89689821        1       0.00000000      -0.00670724       0.01393609       0.00559091
Pt       8.42164268       4.86225437      26.92089291        1       0.00000000       0.00002471       0.00002882      -0.02130497
C       -0.00000001      -0.00002781      29.22936064        0       1.00000000       0.00001168      -0.00009041      -0.02145236
H        1.04509386      -0.00192948      29.57108047        0       0.00000000       0.01145056       0.00016014       0.00471926
H       -0.52415867      -0.90425517      29.57086482        0       0.00000000      -0.00538856      -0.01003920       0.00509672
H       -0.52093501       0.90589957      29.57130009        0       0.00000000      -0.00607223       0.00980311       0.00434244
