40
Lattice="8.421641763931781 0.0 0.0 4.2108208819658905 7.293355709136913 0.0 0.0 0.0 46.87624170604845" Properties=species:S:1:pos:R:3:tags:I:1:initial_magmoms:R:1:forces:R:3 charge=0 spin=0 energy=-206.89379431552612 free_energy=-206.89379431552612 stress="0.010169295594096184 -1.5896172556040256e-07 -1.3222185124561747e-08 -1.5896172556040256e-07 0.01016921829432249 1.356749237402255e-07 -1.3222185124561747e-08 1.356749237402255e-07 -0.0007338181021623313" pbc="T T T"
Pt      -0.00000012      -0.00000004      19.95723457        4       0.00000000      -0.00000240       0.00000147       0.01278913
Pt       2.80721395      -0.00000016      19.95723462        4       0.00000000      -0.00181147      -0.00506493       0.01678833
Pt       5.61442787      -0.00000009      19.95723469        4       0.00000000       0.00194494      -0.00337414       0.01922741
Pt       1.40360721       2.43111844      19.95723450        4       0.00000000      -0.00390417       0.00001253       0.01917145
Pt       4.21082082       2.43111841      19.95723461        4       0.00000000       0.00000071      -0.00000586       0.02501795
Pt       7.01803480       2.43111847      19.95723446        4       0.00000000       0.00531163       0.00094356       0.01678420
Pt       2.80721415       4.86223736      19.95723430        4       0.00000000      -0.00350276       0.00411706       0.01687813
Pt       5.61442796       4.86223738      19.95723451        4       0.00000000       0.00196192       0.00335928       0.01921680
Pt       8.42164141       4.86223712      19.95723445        4       0.00000000       0.00000441       0.00000686      -0.03743885
Pt       1.40360727       0.81037260      22.29206796        3       0.00000000      -0.00064781      -0.00434253      -0.00343751
Pt       4.21082131       0.81037250      22.29206795        3       0.00000000       0.00391220      -0.01099638      -0.06657160
Pt       7.01803474       0.81037257      22.29206787        3       0.00000000       0.00404338       0.00163879      -0.00348202
Pt       2.80721448       3.24149122      22.29206776        3       0.00000000      -0.01149854       0.00209553      -0.06636122
Pt       5.61442763       3.24149122      22.29206790        3       0.00000000       0.00758634       0.00892376      -0.06640677
Pt       8.42164153       3.24149129      22.29206804        3       0.00000000      -0.00159537       0.07593461      -0.14750071
Pt       4.21082092       5.67260997      22.29206741        3       0.00000000      -0.00340007       0.00266718      -0.00329468
Pt       7.01803486       5.67261038      22.29206784        3       0.00000000       0.06651786      -0.03661669      -0.14750381
Pt       9.82524821       5.67261064      22.29206811        3       0.00000000      -0.06492314      -0.03933329      -0.14749761
Pt      -0.00000055       1.62074564      24.58417373        2       0.00000000      -0.00079263      -0.24258147       0.20518772
Pt       2.80721438       1.62074544      24.58417388        2       0.00000000      -0.00555564       0.00197730      -0.05535306
Pt       5.61442780       1.62074536      24.58417376        2       0.00000000       0.00084917      -0.00593477      -0.05534920
Pt       1.40360636       4.05186448      24.58417388        2       0.00000000      -0.02682807       0.00565912      -0.09065852
Pt       4.21082089       4.05186396      24.58417385        2       0.00000000       0.00454786       0.00369955      -0.05544456
Pt       7.01803505       4.05186407      24.58417401        2       0.00000000       0.01857943       0.02033641      -0.09090219
Pt       2.80721273       6.48298345      24.58417382        2       0.00000000       0.21029298       0.12063468       0.20557626
Pt       5.61442806       6.48298330      24.58417394        2       0.00000000      -0.20948747       0.12221750       0.20532197
Pt       8.42164223       6.48298339      24.58417374        2       0.00000000       0.00838454      -0.02588576      -0.09050687
Pt      -0.00000049       0.00012386      27.12253457        1       0.00000000      -0.00001883       0.00005927      -0.02434164
Pt       2.81031003      -0.00457117      26.88481172        1       0.00000000      -0.00175923       0.00319284       0.04713194
Pt       5.61556716      -0.00289248      26.88826047        1       0.00000000      -0.00260477       0.00230459       0.04048907
Pt       1.40053294       2.43155974      26.88814339        1       0.00000000       0.00327310       0.00118646       0.04064318
Pt       4.21081225       2.43112764      26.90235400        1       0.00000000       0.00001662       0.00002114       0.01623509
Pt       7.02043420       2.43607000      26.88467994        1       0.00000000      -0.00178123      -0.00307663       0.04738633
Pt       2.80172755       4.86189480      26.88474922        1       0.00000000       0.00357345       0.00004961       0.04713751
Pt       5.61635791       4.86473924      26.88804556        1       0.00000000      -0.00070325      -0.00334965       0.04070522
Pt       8.42165614       4.86224788      26.91384194        1       0.00000000       0.00001134       0.00004575       0.00461731
C        0.00000012       0.00003003      29.20169472        0       1.00000000       0.00000617      -0.00029157      -0.00870827
H       -0.52335445       0.90624283      29.53839435        0       0.00000000      -0.00129050       0.00234732       0.03793533
H        1.04661215       0.00002648      29.53797426        0       0.00000000       0.00287769       0.00006714       0.03814847
H       -0.52325605      -0.90653870      29.53755386        0       0.00000000      -0.00158812      -0.00264558       0.03837014
