40
Lattice="8.421641763931781 0.0 0.0 4.2108208819658905 7.293355709136913 0.0 0.0 0.0 46.87624170604845" Properties=species:S:1:pos:R:3:tags:I:1:initial_magmoms:R:1:forces:R:3 charge=0 spin=0 energy=-206.89785506076538 free_energy=-206.89785506076538 stress="0.010363483801484108 -5.905704014708135e-08 4.834847633361505e-09 -5.905704014708135e-08 0.010363387875258923 -3.9480045188611257e-07 4.834847633361505e-09 -3.9480045188611257e-07 -0.000326482200762257" pbc="T T T"
Pt      -0.00000012      -0.00000004      19.95723457        4       0.00000000      -0.00000118       0.00000145       0.01361215
Pt       2.80721395      -0.00000016      19.95723462        4       0.00000000      -0.00177685      -0.00512634       0.01715023
Pt       5.61442787      -0.00000009      19.95723469        4       0.00000000       0.00188050      -0.00359677       0.01926916
Pt       1.40360721       2.43111844      19.95723450        4       0.00000000      -0.00406417       0.00017649       0.01921685
Pt       4.21082082       2.43111841      19.95723461        4       0.00000000       0.00000243      -0.00000613       0.02552516
Pt       7.01803480       2.43111847      19.95723446        4       0.00000000       0.00533988       0.00100064       0.01714700
Pt       2.80721415       4.86223736      19.95723430        4       0.00000000      -0.00356595       0.00411163       0.01724183
Pt       5.61442796       4.86223738      19.95723451        4       0.00000000       0.00218538       0.00340867       0.01925786
Pt       8.42164141       4.86223712      19.95723445        4       0.00000000       0.00000468       0.00000936      -0.03654706
Pt       1.40360727       0.81037260      22.29206796        3       0.00000000      -0.00044278      -0.00347966      -0.00426776
Pt       4.21082131       0.81037250      22.29206795        3       0.00000000       0.00419963      -0.01086637      -0.06722758
Pt       7.01803474       0.81037257      22.29206787        3       0.00000000       0.00319133       0.00137909      -0.00428479
Pt       2.80721448       3.24149122      22.29206776        3       0.00000000      -0.01152303       0.00175921      -0.06700068
Pt       5.61442763       3.24149122      22.29206790        3       0.00000000       0.00731757       0.00908651      -0.06701795
Pt       8.42164153       3.24149129      22.29206804        3       0.00000000      -0.00177638       0.07530694      -0.14933874
Pt       4.21082092       5.67260997      22.29206741        3       0.00000000      -0.00275375       0.00205085      -0.00408507
Pt       7.01803486       5.67261038      22.29206784        3       0.00000000       0.06608415      -0.03614331      -0.14932629
Pt       9.82524821       5.67261064      22.29206811        3       0.00000000      -0.06429783      -0.03919430      -0.14932543
Pt      -0.00000055       1.62074564      24.58417373        2       0.00000000      -0.00347019      -0.24678077       0.25533360
Pt       2.80721438       1.62074544      24.58417388        2       0.00000000      -0.00758109      -0.00425459      -0.01550274
Pt       5.61442780       1.62074536      24.58417376        2       0.00000000       0.00739887      -0.00435041      -0.01549802
Pt       1.40360636       4.05186448      24.58417388        2       0.00000000      -0.01987741       0.00831132      -0.05035026
Pt       4.21082089       4.05186396      24.58417385        2       0.00000000       0.00013599       0.00861706      -0.01562876
Pt       7.01803505       4.05186407      24.58417401        2       0.00000000       0.01732847       0.01295886      -0.05045708
Pt       2.80721273       6.48298345      24.58417382        2       0.00000000       0.21523896       0.12046497       0.25516638
Pt       5.61442806       6.48298330      24.58417394        2       0.00000000      -0.21173593       0.12654196       0.25506470
Pt       8.42164223       6.48298339      24.58417374        2       0.00000000       0.00255791      -0.02118605      -0.05028150
Pt      -0.00000089       0.00000278      27.14563888        1       0.00000000      -0.00000540       0.00008119      -0.00996545
Pt       2.80981438      -0.00410868      26.89608158        1       0.00000000      -0.01601727      -0.00098028       0.00619091
Pt       5.61245925      -0.00297006      26.89558440        1       0.00000000       0.01472855      -0.00032604       0.00696472
Pt       1.40197482       2.43438148      26.89556061        1       0.00000000      -0.00779436      -0.01279432       0.00670021
Pt       4.21082085       2.43116971      26.91103739        1       0.00000000      -0.00000547      -0.00004873      -0.01516578
Pt       7.02033495       2.43550420      26.89603664        1       0.00000000       0.00896308      -0.01354698       0.00597634
Pt       2.80232142       4.86215356      26.89600462        1       0.00000000       0.00703401       0.01427679       0.00622797
Pt       5.61802246       4.86213895      26.89548058        1       0.00000000      -0.00692309       0.01287749       0.00671890
Pt       8.42164175       4.86229613      26.92163831        1       0.00000000       0.00002003      -0.00006172      -0.02307826
C        0.00000161      -0.00035721      29.22892581        0       1.00000000      -0.00000730       0.00017595      -0.02236788
H        0.90497821       0.52231867      29.57063486        0       0.00000000       0.01098617       0.00595286       0.00470452
H        0.00020704      -1.04548563      29.57046744        0       0.00000000      -0.00038298      -0.01239265       0.00455760
H       -0.90517634       0.52196762      29.57063972        0       0.00000000      -0.01059520       0.00658608       0.00469093
