40
Lattice="8.421641763931781 0.0 0.0 4.2108208819658905 7.293355709136913 0.0 0.0 0.0 46.87624170604845" Properties=species:S:1:pos:R:3:tags:I:1:initial_magmoms:R:1:forces:R:3 charge=0 spin=0 energy=-206.89639975375854 free_energy=-206.89639975375854 stress="0.010357802733778954 9.950102253242221e-08 -9.422981506190808e-09 9.950102253242221e-08 0.010357972234487534 -1.9415234930875158e-07 -9.422981506190808e-09 -1.9415234930875158e-07 -0.00033872161293402314" pbc="T T T"
Pt      -0.00000012      -0.00000004      19.95723457        4       0.00000000      -0.00000194       0.00000623       0.01323752
Pt       2.80721395      -0.00000016      19.95723462        4       0.00000000      -0.00199553      -0.00478684       0.01739889
Pt       5.61442787      -0.00000009      19.95723469        4       0.00000000       0.00195997      -0.00351697       0.01924819
Pt       1.40360721       2.43111844      19.95723450        4       0.00000000      -0.00403834       0.00008018       0.01918996
Pt       4.21082082       2.43111841      19.95723461        4       0.00000000       0.00000264       0.00000003       0.02534389
Pt       7.01803480       2.43111847      19.95723446        4       0.00000000       0.00515936       0.00065617       0.01739018
Pt       2.80721415       4.86223736      19.95723430        4       0.00000000      -0.00317007       0.00413754       0.01749056
Pt       5.61442796       4.86223738      19.95723451        4       0.00000000       0.00207989       0.00344123       0.01923347
Pt       8.42164141       4.86223712      19.95723445        4       0.00000000       0.00000381      -0.00000673      -0.03679930
Pt       1.40360727       0.81037260      22.29206796        3       0.00000000      -0.00051290      -0.00279723      -0.00272640
Pt       4.21082131       0.81037250      22.29206795        3       0.00000000       0.00453710      -0.01114544      -0.06708242
Pt       7.01803474       0.81037257      22.29206787        3       0.00000000       0.00265865       0.00101619      -0.00274809
Pt       2.80721448       3.24149122      22.29206776        3       0.00000000      -0.01194655       0.00164134      -0.06686692
Pt       5.61442763       3.24149122      22.29206790        3       0.00000000       0.00740991       0.00954527      -0.06688626
Pt       8.42164153       3.24149129      22.29206804        3       0.00000000      -0.00188004       0.07582865      -0.15043721
Pt       4.21082092       5.67260997      22.29206741        3       0.00000000      -0.00215354       0.00180740      -0.00249934
Pt       7.01803486       5.67261038      22.29206784        3       0.00000000       0.06660764      -0.03631062      -0.15046804
Pt       9.82524821       5.67261064      22.29206811        3       0.00000000      -0.06471709      -0.03953506      -0.15046400
Pt      -0.00000055       1.62074564      24.58417373        2       0.00000000      -0.00457603      -0.24401523       0.25212184
Pt       2.80721438       1.62074544      24.58417388        2       0.00000000      -0.00774687      -0.00833818      -0.01743417
Pt       5.61442780       1.62074536      24.58417376        2       0.00000000       0.01091090      -0.00260945      -0.01746542
Pt       1.40360636       4.05186448      24.58417388        2       0.00000000      -0.00893382       0.00662216      -0.04887272
Pt       4.21082089       4.05186396      24.58417385        2       0.00000000      -0.00323021       0.01075009      -0.01743213
Pt       7.01803505       4.05186407      24.58417401        2       0.00000000       0.01040883       0.00432261      -0.04898178
Pt       2.80721273       6.48298345      24.58417382        2       0.00000000       0.21334967       0.11794071       0.25228128
Pt       5.61442806       6.48298330      24.58417394        2       0.00000000      -0.20871228       0.12596650       0.25219297
Pt       8.42164223       6.48298339      24.58417374        2       0.00000000      -0.00147169      -0.01096341      -0.04878541
Pt      -0.00000314      -0.00016677      27.14295944        1       0.00000000       0.00001611       0.00018512       0.00644622
Pt       2.80490500      -0.00437719      26.89929820        1       0.00000000       0.00533769       0.00134317      -0.00272084
Pt       5.61405379      -0.00221993      26.89681104        1       0.00000000      -0.00525788      -0.00070408      -0.00272983
Pt       1.40188067       2.43247922      26.89676223        1       0.00000000       0.00205114       0.00478190      -0.00292450
Pt       4.21082010       2.43108943      26.90577332        1       0.00000000      -0.00001813      -0.00003901       0.00101732
Pt       7.02296889       2.43123120      26.89919318        1       0.00000000      -0.00382513       0.00393606      -0.00256335
Pt       2.80458375       4.86638723      26.89923292        1       0.00000000      -0.00150858      -0.00538003      -0.00275729
Pt       5.61654023       4.86298811      26.89673582        1       0.00000000       0.00319447      -0.00416600      -0.00298786
Pt       8.42164492       4.86220436      26.91168059        1       0.00000000       0.00000482      -0.00002089       0.00236053
C       -0.00000276       0.00006995      29.22682985        0       1.00000000      -0.00006175      -0.00019394      -0.01422284
H        0.52314415       0.90516362      29.56809360        0       0.00000000       0.00275425       0.00501640       0.00416214
H        0.52212158      -0.90529651      29.56894271        0       0.00000000       0.00293524      -0.00482938       0.00379812
H       -1.04527166       0.00062393      29.56852676        0       0.00000000      -0.00562369       0.00033361       0.00394297
