40
Lattice="8.421641763931781 0.0 0.0 4.2108208819658905 7.293355709136913 0.0 0.0 0.0 46.87624170604845" Properties=species:S:1:pos:R:3:tags:I:1:initial_magmoms:R:1:forces:R:3 charge=0 spin=0 energy=-206.89656950778686 free_energy=-206.89656950778686 stress="0.010358299128711224 -6.500623594973831e-09 9.677980195021973e-09 -6.500623594973831e-09 0.0103581128641963 1.678866823340286e-07 9.677980195021973e-09 1.678866823340286e-07 -0.0003380973357707262" pbc="T T T"
Pt      -0.00000012      -0.00000004      19.95723457        4       0.00000000      -0.00000186      -0.00000047       0.01320717
Pt       2.80721395      -0.00000016      19.95723462        4       0.00000000      -0.00195545      -0.00498534       0.01716456
Pt       5.61442787      -0.00000009      19.95723469        4       0.00000000       0.00202369      -0.00324714       0.01953604
Pt       1.40360721       2.43111844      19.95723450        4       0.00000000      -0.00383437      -0.00011920       0.01948559
Pt       4.21082082       2.43111841      19.95723461        4       0.00000000       0.00000168      -0.00000670       0.02540283
Pt       7.01803480       2.43111847      19.95723446        4       0.00000000       0.00531376       0.00077754       0.01716089
Pt       2.80721415       4.86223736      19.95723430        4       0.00000000      -0.00336128       0.00419868       0.01725822
Pt       5.61442796       4.86223738      19.95723451        4       0.00000000       0.00181445       0.00335889       0.01953025
Pt       8.42164141       4.86223712      19.95723445        4       0.00000000       0.00000512       0.00001062      -0.03694396
Pt       1.40360727       0.81037260      22.29206796        3       0.00000000      -0.00017205      -0.00402936      -0.00289864
Pt       4.21082131       0.81037250      22.29206795        3       0.00000000       0.00410277      -0.01150423      -0.06672817
Pt       7.01803474       0.81037257      22.29206787        3       0.00000000       0.00352880       0.00188114      -0.00292949
Pt       2.80721448       3.24149122      22.29206776        3       0.00000000      -0.01202672       0.00216746      -0.06650105
Pt       5.61442763       3.24149122      22.29206790        3       0.00000000       0.00792333       0.00932864      -0.06653155
Pt       8.42164153       3.24149129      22.29206804        3       0.00000000      -0.00163226       0.07570706      -0.15057960
Pt       4.21082092       5.67260997      22.29206741        3       0.00000000      -0.00336091       0.00208791      -0.00273827
Pt       7.01803486       5.67261038      22.29206784        3       0.00000000       0.06633709      -0.03646224      -0.15057118
Pt       9.82524821       5.67261064      22.29206811        3       0.00000000      -0.06470063      -0.03925453      -0.15056837
Pt      -0.00000055       1.62074564      24.58417373        2       0.00000000      -0.00074702      -0.24348393       0.25200924
Pt       2.80721438       1.62074544      24.58417388        2       0.00000000      -0.01101141      -0.00220843      -0.01676906
Pt       5.61442780       1.62074536      24.58417376        2       0.00000000       0.00730641      -0.00842227      -0.01675647
Pt       1.40360636       4.05186448      24.58417388        2       0.00000000      -0.01306301      -0.00070531      -0.04927480
Pt       4.21082089       4.05186396      24.58417385        2       0.00000000       0.00363620       0.01054966      -0.01689395
Pt       7.01803505       4.05186407      24.58417401        2       0.00000000       0.00615868       0.01154241      -0.04942598
Pt       2.80721273       6.48298345      24.58417382        2       0.00000000       0.21108416       0.12120042       0.25216287
Pt       5.61442806       6.48298330      24.58417394        2       0.00000000      -0.21033183       0.12259845       0.25199449
Pt       8.42164223       6.48298339      24.58417374        2       0.00000000       0.00696987      -0.01078948      -0.04917927
Pt      -0.00000134       0.00017660      27.14299166        1       0.00000000      -0.00001147      -0.00018303       0.00653756
Pt       2.80784847      -0.00445532      26.89672492        1       0.00000000       0.00464514       0.00139204      -0.00166391
Pt       5.61703638      -0.00226887      26.89947651        1       0.00000000      -0.00612969      -0.00065733      -0.00365671
Pt       1.40031343       2.43002387      26.89940780        1       0.00000000       0.00246031       0.00567735      -0.00376131
Pt       4.21082114       2.43115164      26.90550340        1       0.00000000      -0.00001469       0.00002952       0.00012309
Pt       7.02159626       2.43392797      26.89665515        1       0.00000000      -0.00345839       0.00332472      -0.00186588
Pt       2.80303188       4.86400887      26.89664484        1       0.00000000      -0.00117817      -0.00458841      -0.00191530
Pt       5.61510370       4.86573307      26.89930183        1       0.00000000       0.00365341      -0.00488642      -0.00374376
Pt       8.42164566       4.86227078      26.91194430        1       0.00000000       0.00002132       0.00004516       0.00272145
C        0.00000031      -0.00007103      29.22681399        0       1.00000000      -0.00001123       0.00018884      -0.01432015
H       -0.52250779       0.90507289      29.56894081        0       0.00000000      -0.00298963       0.00486790       0.00378767
H        1.04527171      -0.00018836      29.56849982        0       0.00000000       0.00576481      -0.00030672       0.00398001
H       -0.52276363      -0.90538891      29.56806492        0       0.00000000      -0.00275898      -0.00509379       0.00415512
