40
Lattice="8.421641763931781 0.0 0.0 4.2108208819658905 7.293355709136913 0.0 0.0 0.0 46.87624170604845" Properties=species:S:1:pos:R:3:tags:I:1:initial_magmoms:R:1:forces:R:3 charge=0 spin=0 energy=-206.89785506076538 free_energy=-206.89785506076538 stress="0.01036346610635519 -5.616851339595996e-08 7.736263185620373e-09 -5.616851339595996e-08 0.010363382287323475 -4.0333603124054207e-07 7.736263185620373e-09 -4.0333603124054207e-07 -0.0003264732367824763" pbc="T T T"
Pt      -0.00000012      -0.00000004      19.95723457        4       0.00000000      -0.00000110       0.00000134       0.01361215
Pt       2.80721395      -0.00000016      19.95723462        4       0.00000000      -0.00177688      -0.00512624       0.01715025
Pt       5.61442787      -0.00000009      19.95723469        4       0.00000000       0.00188048      -0.00359679       0.01926912
Pt       1.40360721       2.43111844      19.95723450        4       0.00000000      -0.00406401       0.00017663       0.01921676
Pt       4.21082082       2.43111841      19.95723461        4       0.00000000       0.00000232      -0.00000607       0.02552504
Pt       7.01803480       2.43111847      19.95723446        4       0.00000000       0.00533977       0.00100075       0.01714684
Pt       2.80721415       4.86223736      19.95723430        4       0.00000000      -0.00356588       0.00411144       0.01724185
Pt       5.61442796       4.86223738      19.95723451        4       0.00000000       0.00218537       0.00340871       0.01925790
Pt       8.42164141       4.86223712      19.95723445        4       0.00000000       0.00000462       0.00000933      -0.03654723
Pt       1.40360727       0.81037260      22.29206796        3       0.00000000      -0.00044298      -0.00347972      -0.00426820
Pt       4.21082131       0.81037250      22.29206795        3       0.00000000       0.00419951      -0.01086613      -0.06722716
Pt       7.01803474       0.81037257      22.29206787        3       0.00000000       0.00319152       0.00137907      -0.00428455
Pt       2.80721448       3.24149122      22.29206776        3       0.00000000      -0.01152295       0.00175903      -0.06700060
Pt       5.61442763       3.24149122      22.29206790        3       0.00000000       0.00731747       0.00908648      -0.06701785
Pt       8.42164153       3.24149129      22.29206804        3       0.00000000      -0.00177635       0.07530695      -0.14933845
Pt       4.21082092       5.67260997      22.29206741        3       0.00000000      -0.00275371       0.00205102      -0.00408529
Pt       7.01803486       5.67261038      22.29206784        3       0.00000000       0.06608415      -0.03614343      -0.14932635
Pt       9.82524821       5.67261064      22.29206811        3       0.00000000      -0.06429774      -0.03919433      -0.14932437
Pt      -0.00000055       1.62074564      24.58417373        2       0.00000000      -0.00347135      -0.24678019       0.25532779
Pt       2.80721438       1.62074544      24.58417388        2       0.00000000      -0.00757930      -0.00425509      -0.01550513
Pt       5.61442780       1.62074536      24.58417376        2       0.00000000       0.00739845      -0.00434999      -0.01549824
Pt       1.40360636       4.05186448      24.58417388        2       0.00000000      -0.01987754       0.00831312      -0.05035303
Pt       4.21082089       4.05186396      24.58417385        2       0.00000000       0.00013612       0.00861671      -0.01562954
Pt       7.01803505       4.05186407      24.58417401        2       0.00000000       0.01732819       0.01295912      -0.05045757
Pt       2.80721273       6.48298345      24.58417382        2       0.00000000       0.21523711       0.12046409       0.25516340
Pt       5.61442806       6.48298330      24.58417394        2       0.00000000      -0.21173407       0.12654068       0.25506243
Pt       8.42164223       6.48298339      24.58417374        2       0.00000000       0.00255824      -0.02118625      -0.05028256
Pt      -0.00000117       0.00000279      27.14563598        1       0.00000000      -0.00000033       0.00007916      -0.00992028
Pt       2.80981457      -0.00410875      26.89608100        1       0.00000000      -0.01601939      -0.00098085       0.00619089
Pt       5.61245906      -0.00297005      26.89558376        1       0.00000000       0.01472689      -0.00032576       0.00696493
Pt       1.40197477       2.43438147      26.89556025        1       0.00000000      -0.00779279      -0.01279431       0.00670702
Pt       4.21082086       2.43116965      26.91103827        1       0.00000000      -0.00000440      -0.00004816      -0.01516546
Pt       7.02033498       2.43550422      26.89603614        1       0.00000000       0.00895927      -0.01354490       0.00597662
Pt       2.80232116       4.86215345      26.89600463        1       0.00000000       0.00703411       0.01427601       0.00622816
Pt       5.61802249       4.86213881      26.89548017        1       0.00000000      -0.00692234       0.01287649       0.00671862
Pt       8.42164173       4.86229612      26.92163899        1       0.00000000       0.00001930      -0.00006122      -0.02307761
C        0.00000180      -0.00035710      29.22892589        0       1.00000000       0.00000436       0.00012085      -0.02241147
H       -0.90517618       0.52196746      29.57063909        0       0.00000000      -0.01061633       0.00660193       0.00470355
H        0.90497844       0.52231894      29.57063347        0       0.00000000       0.01099604       0.00596327       0.00471127
H        0.00020770      -1.04548606      29.57046757        0       0.00000000      -0.00038399      -0.01236260       0.00454640
