40
Lattice="8.421641763931781 0.0 0.0 4.2108208819658905 7.293355709136913 0.0 0.0 0.0 46.87624170604845" Properties=species:S:1:pos:R:3:tags:I:1:initial_magmoms:R:1:forces:R:3 charge=0 spin=0 energy=-206.8979485208484 free_energy=-206.8979485208484 stress="0.010363619774580002 -4.5173539575671384e-08 1.2588831366233677e-10 -4.5173539575671384e-08 0.010363421402871609 4.61010904473369e-06 1.2588831366233677e-10 4.61010904473369e-06 -0.0003367815515957773" pbc="T T T"
Pt      -0.00000012      -0.00000004      19.95723457        4       0.00000000      -0.00000451      -0.00002109       0.01318951
Pt       2.80721395      -0.00000016      19.95723462        4       0.00000000      -0.00194753      -0.00474583       0.01724705
Pt       5.61442787      -0.00000009      19.95723469        4       0.00000000       0.00197983      -0.00330066       0.01934547
Pt       1.40360721       2.43111844      19.95723450        4       0.00000000      -0.00387247      -0.00007207       0.01932325
Pt       4.21082082       2.43111841      19.95723461        4       0.00000000      -0.00001027      -0.00000031       0.02529677
Pt       7.01803480       2.43111847      19.95723446        4       0.00000000       0.00511836       0.00062979       0.01726762
Pt       2.80721415       4.86223736      19.95723430        4       0.00000000      -0.00318068       0.00412038       0.01733248
Pt       5.61442796       4.86223738      19.95723451        4       0.00000000       0.00190578       0.00340080       0.01935845
Pt       8.42164141       4.86223712      19.95723445        4       0.00000000       0.00000696       0.00008272      -0.03673701
Pt       1.40360727       0.81037260      22.29206796        3       0.00000000      -0.00029754      -0.00348140      -0.00252363
Pt       4.21082131       0.81037250      22.29206795        3       0.00000000       0.00441165      -0.01135521      -0.06727348
Pt       7.01803474       0.81037257      22.29206787        3       0.00000000       0.00308032       0.00139382      -0.00257965
Pt       2.80721448       3.24149122      22.29206776        3       0.00000000      -0.01208997       0.00185908      -0.06698566
Pt       5.61442763       3.24149122      22.29206790        3       0.00000000       0.00767713       0.00958618      -0.06701183
Pt       8.42164153       3.24149129      22.29206804        3       0.00000000      -0.00178861       0.07603435      -0.15051068
Pt       4.21082092       5.67260997      22.29206741        3       0.00000000      -0.00278640       0.00198342      -0.00250690
Pt       7.01803486       5.67261038      22.29206784        3       0.00000000       0.06648751      -0.03632949      -0.15031126
Pt       9.82524821       5.67261064      22.29206811        3       0.00000000      -0.06469845      -0.03941556      -0.15036157
Pt      -0.00000055       1.62074564      24.58417373        2       0.00000000      -0.00252248      -0.24245282       0.25301775
Pt       2.80721438       1.62074544      24.58417388        2       0.00000000      -0.00799350      -0.00437094      -0.01731291
Pt       5.61442780       1.62074536      24.58417376        2       0.00000000       0.00756426      -0.00481969      -0.01726313
Pt       1.40360636       4.05186448      24.58417388        2       0.00000000      -0.01030422       0.00252057      -0.04734243
Pt       4.21082089       4.05186396      24.58417385        2       0.00000000       0.00039532       0.00843019      -0.01898359
Pt       7.01803505       4.05186407      24.58417401        2       0.00000000       0.00791166       0.00687760      -0.04754533
Pt       2.80721273       6.48298345      24.58417382        2       0.00000000       0.21241319       0.11994615       0.25273275
Pt       5.61442806       6.48298330      24.58417394        2       0.00000000      -0.20983644       0.12442358       0.25255752
Pt       8.42164223       6.48298339      24.58417374        2       0.00000000       0.00238250      -0.01021647      -0.04822501
Pt       0.00000417       0.00207618      27.14278713        1       0.00000000       0.00001480      -0.00395828       0.00596842
Pt       2.80634239      -0.00482865      26.89809467        1       0.00000000       0.00624751       0.00442841      -0.00215148
Pt       5.61547647      -0.00267514      26.89826269        1       0.00000000      -0.00693167       0.00243592      -0.00315082
Pt       1.40157392       2.43137067      26.89855937        1       0.00000000       0.00281241       0.00646135      -0.00428003
Pt       4.21081046       2.43097961      26.90645557        1       0.00000000       0.00003937       0.00002056      -0.00082532
Pt       7.02184753       2.43258717      26.89837005        1       0.00000000      -0.00425546       0.00489927      -0.00337293
Pt       2.80451109       4.86529769      26.89788082        1       0.00000000      -0.00254817      -0.00581271      -0.00206153
Pt       5.61519065       4.86436328      26.89798787        1       0.00000000       0.00459771      -0.00539994      -0.00294586
Pt       8.42164130       4.86210443      26.91183041        1       0.00000000       0.00003957       0.00013080       0.00176770
C        0.00000459       0.00076939      29.22676478        0       1.00000000      -0.00001659      -0.00224056      -0.02359633
H       -0.90570826      -0.52314500      29.56530838        0       0.00000000      -0.00063966      -0.00029005       0.01104011
H        0.00008062       1.04531584      29.57117186        0       0.00000000       0.00032789      -0.00089423      -0.00060545
H        0.90561153      -0.52333908      29.56530290        0       0.00000000       0.00031128      -0.00048790       0.01101893
