40
Lattice="8.421641763931781 0.0 0.0 4.2108208819658905 7.293355709136913 0.0 0.0 0.0 46.87624170604845" Properties=species:S:1:pos:R:3:tags:I:1:initial_magmoms:R:1:forces:R:3 charge=0 spin=0 energy=-206.89771582431518 free_energy=-206.89771582431518 stress="0.010364552959799767 1.3985800961791028e-08 -1.463365317810883e-09 1.3985800961791028e-08 0.01036467868834734 2.2106999608695332e-07 -1.463365317810883e-09 2.2106999608695332e-07 -0.0003257743373978883" pbc="T T T"
Pt      -0.00000012      -0.00000004      19.95723457        4       0.00000000      -0.00000217       0.00000376       0.01352694
Pt       2.80721395      -0.00000016      19.95723462        4       0.00000000      -0.00176652      -0.00484155       0.01707837
Pt       5.61442787      -0.00000009      19.95723469        4       0.00000000       0.00187145      -0.00344069       0.01921286
Pt       1.40360721       2.43111844      19.95723450        4       0.00000000      -0.00392891       0.00011884       0.01915754
Pt       4.21082082       2.43111841      19.95723461        4       0.00000000       0.00000168      -0.00000057       0.02539444
Pt       7.01803480       2.43111847      19.95723446        4       0.00000000       0.00509470       0.00087969       0.01707103
Pt       2.80721415       4.86223736      19.95723430        4       0.00000000      -0.00333266       0.00396802       0.01716887
Pt       5.61442796       4.86223738      19.95723451        4       0.00000000       0.00205870       0.00332849       0.01920007
Pt       8.42164141       4.86223712      19.95723445        4       0.00000000       0.00000344      -0.00000479      -0.03641148
Pt       1.40360727       0.81037260      22.29206796        3       0.00000000      -0.00047631      -0.00356904      -0.00393812
Pt       4.21082131       0.81037250      22.29206795        3       0.00000000       0.00439294      -0.01119467      -0.06745015
Pt       7.01803474       0.81037257      22.29206787        3       0.00000000       0.00330251       0.00142195      -0.00395424
Pt       2.80721448       3.24149122      22.29206776        3       0.00000000      -0.01191382       0.00178295      -0.06723168
Pt       5.61442763       3.24149122      22.29206790        3       0.00000000       0.00752091       0.00944562      -0.06725293
Pt       8.42164153       3.24149129      22.29206804        3       0.00000000      -0.00181567       0.07551253      -0.14930011
Pt       4.21082092       5.67260997      22.29206741        3       0.00000000      -0.00283071       0.00216438      -0.00371436
Pt       7.01803486       5.67261038      22.29206784        3       0.00000000       0.06628557      -0.03620134      -0.14932662
Pt       9.82524821       5.67261064      22.29206811        3       0.00000000      -0.06446109      -0.03931246      -0.14932095
Pt      -0.00000055       1.62074564      24.58417373        2       0.00000000      -0.00309386      -0.24661936       0.25709814
Pt       2.80721438       1.62074544      24.58417388        2       0.00000000      -0.00412048      -0.00201506      -0.01768690
Pt       5.61442780       1.62074536      24.58417376        2       0.00000000       0.00363302      -0.00261714      -0.01769956
Pt       1.40360636       4.05186448      24.58417388        2       0.00000000      -0.01752535       0.00771841      -0.04998897
Pt       4.21082089       4.05186396      24.58417385        2       0.00000000       0.00042018       0.00447883      -0.01764358
Pt       7.01803505       4.05186407      24.58417401        2       0.00000000       0.01566477       0.01120936      -0.05012738
Pt       2.80721273       6.48298345      24.58417382        2       0.00000000       0.21498834       0.12057231       0.25747943
Pt       5.61442806       6.48298330      24.58417394        2       0.00000000      -0.21186116       0.12601651       0.25736102
Pt       8.42164223       6.48298339      24.58417374        2       0.00000000       0.00189016      -0.01895864      -0.04997853
Pt       0.00000047       0.00003789      27.14560103        1       0.00000000      -0.00000409      -0.00010000      -0.00959921
Pt       2.80971842      -0.00333200      26.89599625        1       0.00000000      -0.01562148      -0.00264689       0.00641116
Pt       5.61218372      -0.00219253      26.89569789        1       0.00000000       0.01470657      -0.00188563       0.00688889
Pt       1.40284820       2.43408717      26.89565051        1       0.00000000      -0.00886603      -0.01174575       0.00671357
Pt       4.21082045       2.43108584      26.91321728        1       0.00000000      -0.00001779       0.00003190      -0.01895455
Pt       7.01964179       2.43488147      26.89592865        1       0.00000000       0.00996395      -0.01216485       0.00616156
Pt       2.80310201       4.86168140      26.89597147        1       0.00000000       0.00569063       0.01507111       0.00611468
Pt       5.61743720       4.86133894      26.89562894        1       0.00000000      -0.00587277       0.01390800       0.00655757
Pt       8.42164506       4.86220553      26.91986607        1       0.00000000       0.00001641       0.00004917      -0.01997681
C       -0.00000447       0.00035326      29.22906287        0       1.00000000      -0.00001525      -0.00019464      -0.02307786
H        0.90519427      -0.52188012      29.57077407        0       0.00000000       0.01101426      -0.00664786       0.00478181
H       -0.90489374      -0.52241632      29.57077152        0       0.00000000      -0.01122688      -0.00626856       0.00477325
H       -0.00031663       1.04542337      29.57070008        0       0.00000000       0.00023254       0.01274765       0.00448277
