40
Lattice="8.421641763931781 0.0 0.0 4.2108208819658905 7.293355709136913 0.0 0.0 0.0 46.87624170604845" Properties=species:S:1:pos:R:3:tags:I:1:initial_magmoms:R:1:forces:R:3 charge=0 spin=0 energy=-206.8936188394519 free_energy=-206.8936188394519 stress="0.010168850421905518 -1.4533742387357051e-07 1.7226675197434815e-08 -1.4533742387357051e-07 0.01016897801309824 -3.585244883197447e-07 1.7226675197434815e-08 -3.585244883197447e-07 -0.0007342717726714909" pbc="T T T"
Pt      -0.00000012      -0.00000004      19.95723457        4       0.00000000      -0.00000004       0.00000476       0.01283258
Pt       2.80721395      -0.00000016      19.95723462        4       0.00000000      -0.00186052      -0.00479673       0.01709274
Pt       5.61442787      -0.00000009      19.95723469        4       0.00000000       0.00186641      -0.00371346       0.01884603
Pt       1.40360721       2.43111844      19.95723450        4       0.00000000      -0.00415790       0.00025092       0.01878614
Pt       4.21082082       2.43111841      19.95723461        4       0.00000000       0.00000168      -0.00000216       0.02499512
Pt       7.01803480       2.43111847      19.95723446        4       0.00000000       0.00509988       0.00077274       0.01708776
Pt       2.80721415       4.86223736      19.95723430        4       0.00000000      -0.00324423       0.00402596       0.01718405
Pt       5.61442796       4.86223738      19.95723451        4       0.00000000       0.00229307       0.00346153       0.01882991
Pt       8.42164141       4.86223712      19.95723445        4       0.00000000       0.00000530      -0.00000094      -0.03730420
Pt       1.40360727       0.81037260      22.29206796        3       0.00000000      -0.00107979      -0.00300000      -0.00333598
Pt       4.21082131       0.81037250      22.29206795        3       0.00000000       0.00436447      -0.01069613      -0.06681020
Pt       7.01803474       0.81037257      22.29206787        3       0.00000000       0.00311523       0.00061908      -0.00337258
Pt       2.80721448       3.24149122      22.29206776        3       0.00000000      -0.01146974       0.00156440      -0.06662089
Pt       5.61442763       3.24149122      22.29206790        3       0.00000000       0.00710246       0.00916585      -0.06663167
Pt       8.42164153       3.24149129      22.29206804        3       0.00000000      -0.00197425       0.07603311      -0.14740813
Pt       4.21082092       5.67260997      22.29206741        3       0.00000000      -0.00205064       0.00238870      -0.00315352
Pt       7.01803486       5.67261038      22.29206784        3       0.00000000       0.06682463      -0.03633296      -0.14741939
Pt       9.82524821       5.67261064      22.29206811        3       0.00000000      -0.06483232      -0.03972336      -0.14743294
Pt      -0.00000055       1.62074564      24.58417373        2       0.00000000      -0.00555563      -0.24305463       0.20536147
Pt       2.80721438       1.62074544      24.58417388        2       0.00000000      -0.00062087      -0.00571065      -0.05533703
Pt       5.61442780       1.62074536      24.58417376        2       0.00000000       0.00496211       0.00220097      -0.05550467
Pt       1.40360636       4.05186448      24.58417388        2       0.00000000      -0.02071171       0.01580980      -0.09085140
Pt       4.21082089       4.05186396      24.58417385        2       0.00000000      -0.00442804       0.00323916      -0.05542368
Pt       7.01803505       4.05186407      24.58417401        2       0.00000000       0.02421486       0.00999941      -0.09095176
Pt       2.80721273       6.48298345      24.58417382        2       0.00000000       0.21300815       0.11661039       0.20545194
Pt       5.61442806       6.48298330      24.58417394        2       0.00000000      -0.20726639       0.12641440       0.20548707
Pt       8.42164223       6.48298339      24.58417374        2       0.00000000      -0.00360085      -0.02567707      -0.09065533
Pt       0.00000473      -0.00010716      27.12248249        1       0.00000000       0.00000934      -0.00007779      -0.02416304
Pt       2.80620705      -0.00439329      26.88837601        1       0.00000000       0.00272045       0.00336305       0.04117107
Pt       5.61143352      -0.00282449      26.88455948        1       0.00000000       0.00180311       0.00298263       0.04696796
Pt       1.40266487       2.43508614      26.88451591        1       0.00000000       0.00164427      -0.00321703       0.04680038
Pt       4.21080885       2.43110940      26.90329416        1       0.00000000       0.00001073      -0.00004416       0.01480185
Pt       7.02233389       2.43239673      26.88817009        1       0.00000000      -0.00422804       0.00062497       0.04147658
Pt       2.80391610       4.86531655      26.88823112        1       0.00000000       0.00153760      -0.00409655       0.04134706
Pt       5.61837269       4.86107223      26.88450339        1       0.00000000      -0.00346657       0.00009898       0.04667568
Pt       8.42164728       4.86222717      26.91311081        1       0.00000000      -0.00002896      -0.00000968       0.00564774
C       -0.00000055      -0.00002921      29.20171489        0       1.00000000       0.00000911       0.00030020      -0.00856416
H        0.52323770       0.90654920      29.53759790        0       0.00000000       0.00148767       0.00236295       0.03825195
H        0.52337498      -0.90623614      29.53842195        0       0.00000000       0.00109563      -0.00212690       0.03782229
H       -1.04661373      -0.00005142      29.53800992        0       0.00000000      -0.00259980      -0.00001392       0.03802335
