39
Lattice="8.421641763931781 0.0 0.0 4.2108208819658905 7.293355709136913 0.0 0.0 0.0 46.87624170604845" Properties=species:S:1:pos:R:3:tags:I:1:initial_magmoms:R:1:forces:R:3 charge=0 spin=0 energy=-202.06397247699164 free_energy=-202.06397247699164 stress="0.01010170392692089 -6.587780808331445e-05 -5.7409313740208745e-05 -6.587780808331445e-05 0.010034028440713882 5.0579383241711184e-05 -5.7409313740208745e-05 5.0579383241711184e-05 -0.0002662335755303502" pbc="T T T"
Pt      -0.00000014       0.00000001      19.95723434        4       0.00000000       0.00170643      -0.00285886       0.01377503
Pt       2.80721406      -0.00000017      19.95723453        4       0.00000000       0.00412262      -0.00953459       0.01625233
Pt       5.61442782      -0.00000007      19.95723459        4       0.00000000      -0.00036547      -0.00842187       0.01956038
Pt       1.40360721       2.43111843      19.95723438        4       0.00000000      -0.00257879      -0.00007563       0.01887904
Pt       4.21082079       2.43111835      19.95723450        4       0.00000000       0.00129137      -0.00217179       0.02350927
Pt       7.01803476       2.43111845      19.95723434        4       0.00000000       0.00498180       0.00150758       0.01794603
Pt       2.80721406       4.86223731      19.95723412        4       0.00000000      -0.00227277       0.00084044       0.01769599
Pt       5.61442804       4.86223736      19.95723427        4       0.00000000       0.00809083       0.00097025       0.01946581
Pt       8.42164140       4.86223726      19.95723442        4       0.00000000      -0.00302590       0.00252120      -0.04560944
Pt       1.40360736       0.81037259      22.29206790        3       0.00000000       0.00064205      -0.00799690      -0.02229661
Pt       4.21082124       0.81037251      22.29206791        3       0.00000000       0.00955965      -0.01015489      -0.06189929
Pt       7.01803474       0.81037259      22.29206782        3       0.00000000       0.01153590      -0.00796345      -0.01093783
Pt       2.80721449       3.24149124      22.29206775        3       0.00000000      -0.00322533      -0.00621888      -0.07094042
Pt       5.61442762       3.24149121      22.29206790        3       0.00000000       0.00698236      -0.00537336      -0.06916945
Pt       8.42164156       3.24149119      22.29206804        3       0.00000000       0.00309081       0.05429052      -0.12788582
Pt       4.21082091       5.67260997      22.29206796        3       0.00000000      -0.00372298      -0.00854142      -0.02254229
Pt       7.01803484       5.67261040      22.29206779        3       0.00000000       0.05203327      -0.03592410      -0.08752198
Pt       9.82524824       5.67261062      22.29206803        3       0.00000000      -0.04491665      -0.04474814      -0.12579691
Pt      -0.00000056       1.62074570      24.58417379        2       0.00000000      -0.03227730      -0.23042671       0.29885006
Pt       2.80721437       1.62074546      24.58417393        2       0.00000000      -0.01327810       0.01525982      -0.01304024
Pt       5.61442780       1.62074538      24.58417375        2       0.00000000      -0.00796533       0.03046034      -0.01503085
Pt       1.40360638       4.05186440      24.58417386        2       0.00000000      -0.05296541       0.06142588      -0.09680394
Pt       4.21082088       4.05186404      24.58417376        2       0.00000000      -0.00259901       0.02679628      -0.01616590
Pt       7.01803504       4.05186408      24.58417405        2       0.00000000       0.00135386       0.05117688      -0.05306010
Pt       2.80721280       6.48298343      24.58417370        2       0.00000000       0.17055093       0.13907905       0.26259106
Pt       5.61442799       6.48298326      24.58417388        2       0.00000000      -0.20885663       0.14186396       0.27418885
Pt       8.42164221       6.48298341      24.58417380        2       0.00000000      -0.02039562      -0.01870767      -0.10621101
Pt      -0.01296850       0.03051358      27.07608033        1       0.00000000       0.02944047       0.00894403       0.01710190
Pt       2.80350054       0.02739466      26.90173295        1       0.00000000       0.00044336       0.00399172       0.00210521
Pt       5.57362889       0.02894659      26.89426116        1       0.00000000       0.04099023      -0.00367377       0.00186030
Pt       1.38666333       2.47520350      26.88925675        1       0.00000000       0.02638520      -0.00528661       0.00514231
Pt       4.19258880       2.46714360      26.91523591        1       0.00000000       0.00988719      -0.01597393      -0.00960500
Pt       6.99796188       2.47531560      26.90067087        1       0.00000000      -0.02000683       0.00180554      -0.02263847
Pt       2.78065596       4.88596563      26.89755898        1       0.00000000       0.00179499      -0.00432431      -0.00387799
Pt       5.59941769       4.89383891      26.90563116        1       0.00000000       0.01414019      -0.04095607      -0.00663393
Pt       8.39977552       4.89823611      26.92241130        1       0.00000000       0.01645150      -0.03230953      -0.00351511
N       -0.05927988       0.12136207      29.08804686        0       1.00000000       0.00734617      -0.01311315       0.01764326
H       -0.52031678      -0.72284817      29.46404244        0       0.00000000       0.01202037      -0.00885195      -0.01152005
H        0.90475560       0.11809062      29.45972395        0       0.00000000      -0.01638935      -0.01732594      -0.02386431
