39
Lattice="8.421641763931781 0.0 0.0 4.2108208819658905 7.293355709136913 0.0 0.0 0.0 46.87624170604845" Properties=species:S:1:pos:R:3:tags:I:1:initial_magmoms:R:1:forces:R:3 charge=0 spin=0 energy=-202.0623722114887 free_energy=-202.0623722114887 stress="0.010106782428920269 -9.42795304581523e-05 -0.00011014147457899526 -9.42795304581523e-05 0.010000749491155148 7.145823474274948e-05 -0.00011014147457899526 7.145823474274948e-05 -0.0003114792925771326" pbc="T T T"
Pt      -0.00000014       0.00000001      19.95723434        4       0.00000000       0.00256083      -0.00197970       0.01358132
Pt       2.80721406      -0.00000017      19.95723453        4       0.00000000       0.00487862      -0.00884653       0.01768021
Pt       5.61442782      -0.00000007      19.95723459        4       0.00000000       0.00088219      -0.00702384       0.02022857
Pt       1.40360721       2.43111843      19.95723438        4       0.00000000      -0.00145493       0.00096837       0.01849155
Pt       4.21082079       2.43111835      19.95723450        4       0.00000000       0.00173950      -0.00135297       0.02344215
Pt       7.01803476       2.43111845      19.95723434        4       0.00000000       0.00662696       0.00331574       0.01768943
Pt       2.80721406       4.86223731      19.95723412        4       0.00000000      -0.00006934       0.00095583       0.01702075
Pt       5.61442804       4.86223736      19.95723427        4       0.00000000       0.00938896       0.00158806       0.01874119
Pt       8.42164140       4.86223726      19.95723442        4       0.00000000      -0.00295416       0.00210916      -0.04533696
Pt       1.40360736       0.81037259      22.29206790        3       0.00000000       0.00383324      -0.00325741      -0.02440266
Pt       4.21082124       0.81037251      22.29206791        3       0.00000000       0.01390085      -0.00841353      -0.06529247
Pt       7.01803474       0.81037259      22.29206782        3       0.00000000       0.01500252      -0.00562607      -0.01268057
Pt       2.80721449       3.24149124      22.29206775        3       0.00000000      -0.00070491      -0.00421015      -0.06946375
Pt       5.61442762       3.24149121      22.29206790        3       0.00000000       0.01024119      -0.00403839      -0.06463210
Pt       8.42164156       3.24149119      22.29206804        3       0.00000000       0.00846993       0.05746812      -0.13136975
Pt       4.21082091       5.67260997      22.29206796        3       0.00000000      -0.00034410      -0.00487817      -0.01984842
Pt       7.01803484       5.67261040      22.29206779        3       0.00000000       0.05742666      -0.03036131      -0.08131471
Pt       9.82524824       5.67261062      22.29206803        3       0.00000000      -0.04284535      -0.04001848      -0.13022986
Pt      -0.00000056       1.62074570      24.58417379        2       0.00000000      -0.03640649      -0.21119577       0.26190171
Pt       2.80721437       1.62074546      24.58417393        2       0.00000000      -0.02569356       0.00017942      -0.01577169
Pt       5.61442780       1.62074538      24.58417375        2       0.00000000      -0.02770154       0.01746307      -0.03447845
Pt       1.40360638       4.05186440      24.58417386        2       0.00000000      -0.07750876       0.04432165      -0.12045193
Pt       4.21082088       4.05186404      24.58417376        2       0.00000000      -0.01126779       0.01793999      -0.02163701
Pt       7.01803504       4.05186408      24.58417405        2       0.00000000      -0.00496309       0.04916075      -0.06065008
Pt       2.80721280       6.48298343      24.58417370        2       0.00000000       0.17055778       0.13623667       0.26924303
Pt       5.61442799       6.48298326      24.58417388        2       0.00000000      -0.22332281       0.13725984       0.29188189
Pt       8.42164221       6.48298341      24.58417380        2       0.00000000      -0.03998361      -0.01946199      -0.06462438
Pt      -0.02455435       0.01805174      27.07452664        1       0.00000000       0.01139873      -0.00997586       0.00910702
Pt       2.77987110       0.02060094      26.90677648        1       0.00000000       0.03536958      -0.02412767      -0.00819033
Pt       5.56734415       0.02248202      26.89441485        1       0.00000000      -0.00567182      -0.02517825      -0.00162317
Pt       1.37494268       2.46766092      26.89029122        1       0.00000000       0.00836173      -0.02495426       0.01003115
Pt       4.17543595       2.45385989      26.91470830        1       0.00000000       0.01793990      -0.01046451      -0.00216161
Pt       6.97716383       2.46389933      26.89499675        1       0.00000000       0.01761438       0.01578439      -0.00175657
Pt       2.76243837       4.87225570      26.89191341        1       0.00000000       0.02456964       0.00520561       0.00924103
Pt       5.58275188       4.87888796      26.90634084        1       0.00000000       0.03767030      -0.01979533      -0.00793511
Pt       8.38951071       4.88330704      26.92330128        1       0.00000000      -0.00837778       0.00576400      -0.01347636
N       -0.13945135       0.08123935      29.08679699        0       1.00000000       0.01489281      -0.00877759      -0.03365691
H       -0.12383786      -0.88211930      29.45726770        0       0.00000000       0.01033337      -0.02380004       0.01627674
H        0.70412939       0.54723180      29.45647877        0       0.00000000       0.02561013       0.00201730       0.01642699
