39
Lattice="8.421641763931781 0.0 0.0 4.2108208819658905 7.293355709136913 0.0 0.0 0.0 46.87624170604845" Properties=species:S:1:pos:R:3:tags:I:1:initial_magmoms:R:1:forces:R:3 charge=0 spin=0 energy=-201.93395805743597 free_energy=-201.93395805743597 stress="0.009816731326282024 -3.407034819247201e-05 -4.439446274773218e-05 -3.407034819247201e-05 0.009754079394042492 2.7824540666188113e-05 -4.439446274773218e-05 2.7824540666188113e-05 -0.0002918281243182719" pbc="T T T"
Pt      -0.00000014       0.00000001      19.95723434        4       0.00000000      -0.00193309       0.00044382       0.01551707
Pt       2.80721406      -0.00000017      19.95723453        4       0.00000000       0.00182620      -0.00583059       0.02018436
Pt       5.61442782      -0.00000007      19.95723459        4       0.00000000      -0.00472109      -0.00750123       0.02158260
Pt       1.40360721       2.43111843      19.95723438        4       0.00000000      -0.00620686       0.00748610       0.01742589
Pt       4.21082079       2.43111835      19.95723450        4       0.00000000      -0.00156922       0.00051000       0.02351618
Pt       7.01803476       2.43111845      19.95723434        4       0.00000000       0.00327259       0.00721698       0.02000257
Pt       2.80721406       4.86223731      19.95723412        4       0.00000000      -0.00854863       0.00055685       0.01641463
Pt       5.61442804       4.86223736      19.95723427        4       0.00000000       0.00655551       0.00303314       0.02050444
Pt       8.42164140       4.86223726      19.95723442        4       0.00000000       0.00233509      -0.00083719      -0.05479122
Pt       1.40360736       0.81037259      22.29206790        3       0.00000000      -0.01066985       0.00351128      -0.03319989
Pt       4.21082124       0.81037251      22.29206791        3       0.00000000      -0.00148318       0.00487763      -0.06837860
Pt       7.01803474       0.81037259      22.29206782        3       0.00000000      -0.00323961       0.00681754      -0.03656537
Pt       2.80721449       3.24149124      22.29206775        3       0.00000000      -0.01017755       0.00146668      -0.06727234
Pt       5.61442762       3.24149121      22.29206790        3       0.00000000      -0.00678693       0.00570597      -0.06684518
Pt       8.42164156       3.24149119      22.29206804        3       0.00000000      -0.01000191       0.05241036      -0.10389013
Pt       4.21082091       5.67260997      22.29206796        3       0.00000000      -0.01208576       0.00621225      -0.03183391
Pt       7.01803484       5.67261040      22.29206779        3       0.00000000       0.03922607      -0.01967551      -0.07329530
Pt       9.82524824       5.67261062      22.29206803        3       0.00000000      -0.04554317      -0.01960976      -0.10043291
Pt      -0.00000056       1.62074570      24.58417379        2       0.00000000       0.01251983      -0.21846950       0.24643978
Pt       2.80721437       1.62074546      24.58417393        2       0.00000000       0.02098643      -0.01346462      -0.02713440
Pt       5.61442780       1.62074538      24.58417375        2       0.00000000       0.01283903      -0.01261351      -0.03288004
Pt       1.40360638       4.05186440      24.58417386        2       0.00000000      -0.04172204       0.02131078      -0.13880737
Pt       4.21082088       4.05186404      24.58417376        2       0.00000000       0.02309279      -0.01855414      -0.02910384
Pt       7.01803504       4.05186408      24.58417405        2       0.00000000       0.06643613       0.00766805      -0.09925261
Pt       2.80721280       6.48298343      24.58417370        2       0.00000000       0.20125534       0.09243248       0.26284355
Pt       5.61442799       6.48298326      24.58417388        2       0.00000000      -0.23562442       0.14490101       0.40645066
Pt       8.42164221       6.48298341      24.58417380        2       0.00000000       0.02701772      -0.06157846      -0.10467314
Pt       0.04971942      -0.03170228      27.03623727        1       0.00000000       0.00684724      -0.00596795       0.01668274
Pt       2.85781766      -0.01499474      26.90192797        1       0.00000000      -0.01505636       0.00072081      -0.00166473
Pt       5.61960154      -0.01684634      26.89700127        1       0.00000000      -0.00179380      -0.00055967      -0.00241108
Pt       1.43472153       2.43953658      26.89451621        1       0.00000000       0.00338294      -0.00295041      -0.00512852
Pt       4.23282354       2.41688974      26.91800803        1       0.00000000       0.00312197      -0.00052922       0.00628001
Pt       7.03519740       2.43201138      26.89698770        1       0.00000000      -0.00197895       0.00484008      -0.00337756
Pt       2.81435499       4.82661750      26.89647819        1       0.00000000       0.00612218      -0.00041125      -0.00491576
Pt       5.64998330       4.82523162      26.90134477        1       0.00000000      -0.00768563       0.01024994      -0.00306059
Pt       8.44550393       4.84822012      26.92515186        1       0.00000000       0.00045629      -0.00240583       0.00734841
N       -0.01989567       0.01193735      28.99074391        0       1.00000000      -0.02412843       0.02173644      -0.01251975
H       -0.45996656      -0.73087688      29.53308313        0       0.00000000       0.00774718      -0.00967008       0.00089627
H        0.39959938       0.76899637      29.52979934        0       0.00000000       0.00591574      -0.00347946      -0.00065496
