39
Lattice="8.421641763931781 0.0 0.0 4.2108208819658905 7.293355709136913 0.0 0.0 0.0 46.87624170604845" Properties=species:S:1:pos:R:3:tags:I:1:initial_magmoms:R:1:forces:R:3 charge=0 spin=0 energy=-202.05606270221136 free_energy=-202.05606270221136 stress="0.010093685239553452 7.384706987068057e-05 0.00012180252815596759 7.384706987068057e-05 0.01001967117190361 2.627893991302699e-05 0.00012180252815596759 2.627893991302699e-05 -0.00026705540949478745" pbc="T T T"
Pt      -0.00000014       0.00000001      19.95723434        4       0.00000000      -0.00313415       0.00008784       0.01384945
Pt       2.80721406      -0.00000017      19.95723453        4       0.00000000      -0.00071184      -0.00545446       0.01793294
Pt       5.61442782      -0.00000007      19.95723459        4       0.00000000      -0.00271147      -0.00765722       0.01984443
Pt       1.40360721       2.43111843      19.95723438        4       0.00000000      -0.00680105       0.00484386       0.02057051
Pt       4.21082079       2.43111835      19.95723450        4       0.00000000      -0.00181548       0.00012326       0.02351976
Pt       7.01803476       2.43111845      19.95723434        4       0.00000000       0.00140783       0.00145037       0.01665542
Pt       2.80721406       4.86223731      19.95723412        4       0.00000000      -0.01080607       0.00152016       0.01763017
Pt       5.61442804       4.86223736      19.95723427        4       0.00000000       0.00172443       0.00206360       0.01828916
Pt       8.42164140       4.86223726      19.95723442        4       0.00000000       0.00004022       0.00162003      -0.04567479
Pt       1.40360736       0.81037259      22.29206790        3       0.00000000      -0.01051036      -0.00494215      -0.01477327
Pt       4.21082124       0.81037251      22.29206791        3       0.00000000      -0.00726964      -0.00211817      -0.06829585
Pt       7.01803474       0.81037259      22.29206782        3       0.00000000      -0.00261709       0.00783672      -0.01978586
Pt       2.80721449       3.24149124      22.29206775        3       0.00000000      -0.01227334      -0.00329371      -0.06202741
Pt       5.61442762       3.24149121      22.29206790        3       0.00000000      -0.00207821       0.00700773      -0.07174215
Pt       8.42164156       3.24149119      22.29206804        3       0.00000000      -0.01376768       0.06011067      -0.12737696
Pt       4.21082091       5.67260997      22.29206796        3       0.00000000      -0.00487847       0.00394645      -0.02304535
Pt       7.01803484       5.67261040      22.29206779        3       0.00000000       0.04333882      -0.02818414      -0.12726797
Pt       9.82524824       5.67261062      22.29206803        3       0.00000000      -0.06033087      -0.02894265      -0.08248247
Pt      -0.00000056       1.62074570      24.58417379        2       0.00000000       0.02114082      -0.21974163       0.26653600
Pt       2.80721437       1.62074546      24.58417393        2       0.00000000       0.02294902      -0.00547180      -0.02808638
Pt       5.61442780       1.62074538      24.58417375        2       0.00000000       0.02330183      -0.01702598      -0.01622586
Pt       1.40360638       4.05186440      24.58417386        2       0.00000000      -0.00216343       0.02999392      -0.08628286
Pt       4.21082088       4.05186404      24.58417376        2       0.00000000       0.00490588       0.00871964      -0.01922758
Pt       7.01803504       4.05186408      24.58417405        2       0.00000000       0.07986113       0.01250064      -0.10396341
Pt       2.80721280       6.48298343      24.58417370        2       0.00000000       0.23367617       0.11852807       0.32309121
Pt       5.61442799       6.48298326      24.58417388        2       0.00000000      -0.16468179       0.12312298       0.25728914
Pt       8.42164221       6.48298341      24.58417380        2       0.00000000       0.04451035      -0.03029235      -0.05709914
Pt       0.02615006      -0.01297152      27.07327786        1       0.00000000      -0.01008942      -0.00352426       0.00504994
Pt       2.85704856      -0.00431724      26.89708054        1       0.00000000      -0.01547946       0.00132538      -0.00555543
Pt       5.63879178      -0.00268211      26.91022688        1       0.00000000       0.00594293      -0.00320335      -0.01386852
Pt       1.44003378       2.44550066      26.89330848        1       0.00000000      -0.01430010       0.00020926      -0.01017722
Pt       4.24477915       2.43064561      26.91177150        1       0.00000000      -0.02403195      -0.01097771       0.00749858
Pt       7.04327038       2.44045658      26.89841093        1       0.00000000       0.00782430      -0.01378299      -0.00052281
Pt       2.82814391       4.85322968      26.90692231        1       0.00000000      -0.01408631      -0.00422340      -0.00773768
Pt       5.65410591       4.84735323      26.88817593        1       0.00000000      -0.00945278      -0.00340206       0.00084106
Pt       8.45246366       4.85993138      26.92252437        1       0.00000000      -0.00501074      -0.00173027      -0.00471358
N        0.25155236       0.01173732      29.07551198        0       1.00000000      -0.03673048       0.02240554      -0.01191589
H       -0.39495656       0.70089900      29.49140819        0       0.00000000      -0.02290935      -0.02038544      -0.00591192
H       -0.00418577      -0.91026615      29.46239009        0       0.00000000      -0.03198204       0.00693751       0.00516239
