39
Lattice="8.421641763931781 0.0 0.0 4.2108208819658905 7.293355709136913 0.0 0.0 0.0 46.87624170604845" Properties=species:S:1:pos:R:3:tags:I:1:initial_magmoms:R:1:forces:R:3 charge=0 spin=0 energy=-202.0639648475971 free_energy=-202.0639648475971 stress="0.010109256021678448 6.150559056550264e-05 7.114934123819694e-05 6.150559056550264e-05 0.010028993710875511 2.4446433599223383e-05 7.114934123819694e-05 2.4446433599223383e-05 -0.00026659213472157717" pbc="T T T"
Pt      -0.00000014       0.00000001      19.95723434        4       0.00000000      -0.00332895      -0.00004896       0.01377941
Pt       2.80721406      -0.00000017      19.95723453        4       0.00000000      -0.00117456      -0.00507120       0.01793644
Pt       5.61442782      -0.00000007      19.95723459        4       0.00000000      -0.00319952      -0.00750177       0.01947378
Pt       1.40360721       2.43111843      19.95723438        4       0.00000000      -0.00710873       0.00454230       0.01951176
Pt       4.21082079       2.43111835      19.95723450        4       0.00000000      -0.00251384      -0.00003604       0.02351134
Pt       7.01803476       2.43111845      19.95723434        4       0.00000000       0.00185257       0.00154029       0.01762054
Pt       2.80721406       4.86223731      19.95723412        4       0.00000000      -0.01031686       0.00120561       0.01633564
Pt       5.61442804       4.86223736      19.95723427        4       0.00000000       0.00122313       0.00227275       0.01892270
Pt       8.42164140       4.86223726      19.95723442        4       0.00000000       0.00368341       0.00136874      -0.04560762
Pt       1.40360736       0.81037259      22.29206790        3       0.00000000      -0.01272251      -0.00601272      -0.01097041
Pt       4.21082124       0.81037251      22.29206791        3       0.00000000      -0.00814593      -0.00331913      -0.06941791
Pt       7.01803474       0.81037259      22.29206782        3       0.00000000      -0.00547611       0.00756346      -0.02269652
Pt       2.80721449       3.24149124      22.29206775        3       0.00000000      -0.01362452      -0.00324252      -0.06169171
Pt       5.61442762       3.24149121      22.29206790        3       0.00000000      -0.00370268       0.00590239      -0.07092528
Pt       8.42164156       3.24149119      22.29206804        3       0.00000000      -0.01626221       0.06131427      -0.12579891
Pt       4.21082091       5.67260997      22.29206796        3       0.00000000      -0.00721082       0.00339343      -0.02206135
Pt       7.01803484       5.67261040      22.29206779        3       0.00000000       0.04547387      -0.02983580      -0.12790737
Pt       9.82524824       5.67261062      22.29206803        3       0.00000000      -0.05710802      -0.02711779      -0.08753583
Pt      -0.00000056       1.62074570      24.58417379        2       0.00000000       0.03506178      -0.21743447       0.26262793
Pt       2.80721437       1.62074546      24.58417393        2       0.00000000       0.03020426      -0.00841861      -0.01497823
Pt       5.61442780       1.62074538      24.58417375        2       0.00000000       0.02440659      -0.01114186      -0.01644580
Pt       1.40360638       4.05186440      24.58417386        2       0.00000000      -0.00608172       0.02693819      -0.10634378
Pt       4.21082088       4.05186404      24.58417376        2       0.00000000       0.01981448       0.00392068      -0.01337281
Pt       7.01803504       4.05186408      24.58417405        2       0.00000000       0.07972401       0.01519621      -0.09724472
Pt       2.80721280       6.48298343      24.58417370        2       0.00000000       0.22737266       0.11007674       0.27453551
Pt       5.61442799       6.48298326      24.58417388        2       0.00000000      -0.18325730       0.14312509       0.29902652
Pt       8.42164221       6.48298341      24.58417380        2       0.00000000       0.04354434      -0.02661001      -0.05309100
Pt       0.03277864      -0.00397614      27.07617718        1       0.00000000      -0.00671524      -0.03020189       0.01596813
Pt       2.85554545      -0.00470652      26.90066879        1       0.00000000       0.01107215       0.01631309      -0.02273062
Pt       5.64924185      -0.00277932      26.90559891        1       0.00000000      -0.04239189       0.00800311      -0.00647988
Pt       1.44899038       2.45198177      26.89425521        1       0.00000000      -0.02353399      -0.03384153       0.00186108
Pt       4.25111344       2.42897481      26.91520504        1       0.00000000      -0.01916788      -0.00105238      -0.00939817
Pt       7.05177313       2.44227507      26.89749905        1       0.00000000      -0.00439455       0.00028154      -0.00350436
Pt       2.83270927       4.85173357      26.90174318        1       0.00000000       0.00330921      -0.00198282       0.00217364
Pt       5.66096545       4.85472030      26.88923740        1       0.00000000      -0.01769462      -0.01914769       0.00515669
Pt       8.46361681       4.86312928      26.92233992        1       0.00000000      -0.03590206       0.00220665      -0.00325436
N        0.13528944      -0.00917795      29.08806309        0       1.00000000      -0.02117110      -0.00186557       0.02327419
H       -0.36647866       0.81149057      29.46435965        0       0.00000000      -0.01121164      -0.00832655      -0.01373927
H       -0.34870420      -0.84306417      29.45990396        0       0.00000000      -0.00332522       0.02704460      -0.02651973
