39
Lattice="8.421641763931781 0.0 0.0 4.2108208819658905 7.293355709136913 0.0 0.0 0.0 46.87624170604845" Properties=species:S:1:pos:R:3:tags:I:1:initial_magmoms:R:1:forces:R:3 charge=0 spin=0 energy=-202.06377602008246 free_energy=-202.06377602008246 stress="0.010083533823490143 -6.571791163878515e-05 -6.592521094717085e-05 -6.571791163878515e-05 0.010029098950326443 5.151235018274747e-05 -6.592521094717085e-05 5.151235018274747e-05 -0.0002877883962355554" pbc="T T T"
Pt      -0.00000014       0.00000001      19.95723434        4       0.00000000       0.00208644      -0.00256379       0.01372831
Pt       2.80721406      -0.00000017      19.95723453        4       0.00000000       0.00445150      -0.00917739       0.01630076
Pt       5.61442782      -0.00000007      19.95723459        4       0.00000000      -0.00061138      -0.00824735       0.01958086
Pt       1.40360721       2.43111843      19.95723438        4       0.00000000      -0.00252157       0.00033036       0.01881645
Pt       4.21082079       2.43111835      19.95723450        4       0.00000000       0.00150184      -0.00201216       0.02351317
Pt       7.01803476       2.43111845      19.95723434        4       0.00000000       0.00523768       0.00151290       0.01776346
Pt       2.80721406       4.86223731      19.95723412        4       0.00000000      -0.00225147       0.00082346       0.01752803
Pt       5.61442804       4.86223736      19.95723427        4       0.00000000       0.00775976       0.00119967       0.01959643
Pt       8.42164140       4.86223726      19.95723442        4       0.00000000      -0.00269577       0.00217201      -0.04548090
Pt       1.40360736       0.81037259      22.29206790        3       0.00000000       0.00113120      -0.00729808      -0.02210845
Pt       4.21082124       0.81037251      22.29206791        3       0.00000000       0.01057118      -0.00924132      -0.06031653
Pt       7.01803474       0.81037259      22.29206782        3       0.00000000       0.01219389      -0.00743738      -0.01271054
Pt       2.80721449       3.24149124      22.29206775        3       0.00000000      -0.00247701      -0.00495051      -0.07047182
Pt       5.61442762       3.24149121      22.29206790        3       0.00000000       0.00763062      -0.00465977      -0.06965826
Pt       8.42164156       3.24149119      22.29206804        3       0.00000000       0.00338037       0.05427787      -0.12622575
Pt       4.21082091       5.67260997      22.29206796        3       0.00000000      -0.00332328      -0.00726083      -0.02202405
Pt       7.01803484       5.67261040      22.29206779        3       0.00000000       0.05253067      -0.03554736      -0.08813778
Pt       9.82524824       5.67261062      22.29206803        3       0.00000000      -0.04466370      -0.04406539      -0.12571043
Pt      -0.00000056       1.62074570      24.58417379        2       0.00000000      -0.03045656      -0.22685410       0.29347363
Pt       2.80721437       1.62074546      24.58417393        2       0.00000000      -0.01507184       0.01216326      -0.02385939
Pt       5.61442780       1.62074538      24.58417375        2       0.00000000      -0.01735162       0.02843832      -0.02123969
Pt       1.40360638       4.05186440      24.58417386        2       0.00000000      -0.05777137       0.05853573      -0.09666124
Pt       4.21082088       4.05186404      24.58417376        2       0.00000000      -0.00581925       0.02147697      -0.01473704
Pt       7.01803504       4.05186408      24.58417405        2       0.00000000       0.00450677       0.05103908      -0.05813576
Pt       2.80721280       6.48298343      24.58417370        2       0.00000000       0.17219403       0.13581970       0.25308564
Pt       5.61442799       6.48298326      24.58417388        2       0.00000000      -0.20995647       0.13803893       0.27541339
Pt       8.42164221       6.48298341      24.58417380        2       0.00000000      -0.01953382      -0.02310089      -0.10504662
Pt      -0.01166565       0.02937582      27.07384808        1       0.00000000       0.01767759       0.00369906       0.02912918
Pt       2.80397223       0.02478527      26.90005928        1       0.00000000      -0.00502527      -0.00706216       0.00884048
Pt       5.57765050       0.02618649      26.89301723        1       0.00000000       0.01611582      -0.00438860       0.00557093
Pt       1.38847796       2.47258508      26.88949044        1       0.00000000       0.00183188      -0.00015687       0.00397149
Pt       4.18322504       2.46183813      26.91704366        1       0.00000000       0.04306331      -0.00325991      -0.01309543
Pt       6.99116130       2.47100095      26.89675303        1       0.00000000       0.00263383       0.00960879      -0.00868973
Pt       2.77723361       4.88583297      26.89635283        1       0.00000000       0.01377967      -0.01132159       0.00454334
Pt       5.59821326       4.88707371      26.90359192        1       0.00000000       0.00827821      -0.02143844      -0.00056963
Pt       8.39767158       4.89497316      26.92409313        1       0.00000000       0.01660347      -0.03290319      -0.01123659
N       -0.06414858       0.13203779      29.08690771        0       1.00000000       0.01621341      -0.02687741      -0.00461373
H       -0.52803669      -0.70993788      29.46537364        0       0.00000000       0.01868629      -0.00103764      -0.01443293
H        0.90166643       0.12366948      29.45399091        0       0.00000000      -0.02052908      -0.01827393      -0.00569307
