39
Lattice="8.421641763931781 0.0 0.0 4.2108208819658905 7.293355709136913 0.0 0.0 0.0 46.87624170604845" Properties=species:S:1:pos:R:3:tags:I:1:initial_magmoms:R:1:forces:R:3 charge=0 spin=0 energy=-202.0637493172016 free_energy=-202.0637493172016 stress="0.01009857002645731 5.560185309150256e-05 7.652877684449777e-05 5.560185309150256e-05 0.010011551901698112 3.180068961228244e-05 7.652877684449777e-05 3.180068961228244e-05 -0.00029054994229227304" pbc="T T T"
Pt      -0.00000014       0.00000001      19.95723434        4       0.00000000      -0.00325866      -0.00051944       0.01371559
Pt       2.80721406      -0.00000017      19.95723453        4       0.00000000      -0.00129543      -0.00529149       0.01775483
Pt       5.61442782      -0.00000007      19.95723459        4       0.00000000      -0.00284780      -0.00733127       0.01961250
Pt       1.40360721       2.43111843      19.95723438        4       0.00000000      -0.00684746       0.00467595       0.01953182
Pt       4.21082079       2.43111835      19.95723450        4       0.00000000      -0.00247428      -0.00029695       0.02350946
Pt       7.01803476       2.43111845      19.95723434        4       0.00000000       0.00181945       0.00154313       0.01746422
Pt       2.80721406       4.86223731      19.95723412        4       0.00000000      -0.01017484       0.00072529       0.01639107
Pt       5.61442804       4.86223736      19.95723427        4       0.00000000       0.00154879       0.00201165       0.01886653
Pt       8.42164140       4.86223726      19.95723442        4       0.00000000       0.00322424       0.00126032      -0.04548908
Pt       1.40360736       0.81037259      22.29206790        3       0.00000000      -0.01262478      -0.00685144      -0.01280188
Pt       4.21082124       0.81037251      22.29206791        3       0.00000000      -0.00786891      -0.00420809      -0.06990664
Pt       7.01803474       0.81037259      22.29206782        3       0.00000000      -0.00454627       0.00657231      -0.02228076
Pt       2.80721449       3.24149124      22.29206775        3       0.00000000      -0.01331494      -0.00458029      -0.06013114
Pt       5.61442762       3.24149121      22.29206790        3       0.00000000      -0.00300370       0.00459690      -0.07040900
Pt       8.42164156       3.24149119      22.29206804        3       0.00000000      -0.01580678       0.06073014      -0.12557852
Pt       4.21082091       5.67260997      22.29206796        3       0.00000000      -0.00683957       0.00264632      -0.02197828
Pt       7.01803484       5.67261040      22.29206779        3       0.00000000       0.04527702      -0.03005321      -0.12614278
Pt       9.82524824       5.67261062      22.29206803        3       0.00000000      -0.05697986      -0.02769538      -0.08800676
Pt      -0.00000056       1.62074570      24.58417379        2       0.00000000       0.03137562      -0.21662852       0.25211918
Pt       2.80721437       1.62074546      24.58417393        2       0.00000000       0.03335225       0.00088486      -0.02173927
Pt       5.61442780       1.62074538      24.58417375        2       0.00000000       0.02127061      -0.00553238      -0.01483727
Pt       1.40360638       4.05186440      24.58417386        2       0.00000000      -0.01048061       0.02856293      -0.10512633
Pt       4.21082088       4.05186404      24.58417376        2       0.00000000       0.01813254       0.00692621      -0.02367260
Pt       7.01803504       4.05186408      24.58417405        2       0.00000000       0.07977083       0.02080004      -0.09743831
Pt       2.80721280       6.48298343      24.58417370        2       0.00000000       0.22407992       0.11255810       0.27546909
Pt       5.61442799       6.48298326      24.58417388        2       0.00000000      -0.18063307       0.13936956       0.29271421
Pt       8.42164221       6.48298341      24.58417380        2       0.00000000       0.04200519      -0.02949375      -0.05824675
Pt       0.03122049      -0.00452224      27.07311887        1       0.00000000      -0.00588332      -0.01815439       0.03058925
Pt       2.85523056       0.00343587      26.89664052        1       0.00000000       0.00673428      -0.00772844      -0.00786737
Pt       5.64390945       0.00173428      26.90358320        1       0.00000000      -0.02220776       0.00275565      -0.00061834
Pt       1.44466284       2.44982170      26.89295105        1       0.00000000      -0.01194706      -0.01124674       0.00583741
Pt       4.25107925       2.43963789      26.91714325        1       0.00000000      -0.02376582      -0.03530168      -0.01326635
Pt       7.05344967       2.44531965      26.89626874        1       0.00000000      -0.01711175      -0.00656459       0.00465056
Pt       2.83017551       4.85249433      26.90012016        1       0.00000000      -0.00330171       0.00877699       0.00845653
Pt       5.65805809       4.85445305      26.88948631        1       0.00000000      -0.00232689      -0.00094769       0.00384244
Pt       8.46175216       4.86656792      26.92412746        1       0.00000000      -0.03563253       0.00247981      -0.01122183
N        0.14703143      -0.01026267      29.08615693        0       1.00000000      -0.03461121      -0.00095352      -0.00144194
H       -0.35113672       0.81189110      29.46482266        0       0.00000000      -0.00878990      -0.01750930      -0.01545227
H       -0.34209066      -0.84309802      29.45347702        0       0.00000000      -0.00401554       0.02901273      -0.00687114
