39
Lattice="8.421641763931781 0.0 0.0 4.2108208819658905 7.293355709136913 0.0 0.0 0.0 46.87624170604845" Properties=species:S:1:pos:R:3:tags:I:1:initial_magmoms:R:1:forces:R:3 charge=0 spin=0 energy=-202.06378174212836 free_energy=-202.06378174212836 stress="0.010083035565912724 -6.592686986550689e-05 -6.621384818572551e-05 -6.592686986550689e-05 0.010028967633843422 5.1570459618233144e-05 -6.621384818572551e-05 5.1570459618233144e-05 -0.00028751802165061235" pbc="T T T"
Pt      -0.00000014       0.00000001      19.95723434        4       0.00000000       0.00209146      -0.00256244       0.01372736
Pt       2.80721406      -0.00000017      19.95723453        4       0.00000000       0.00445552      -0.00917708       0.01629709
Pt       5.61442782      -0.00000007      19.95723459        4       0.00000000      -0.00060498      -0.00824690       0.01957904
Pt       1.40360721       2.43111843      19.95723438        4       0.00000000      -0.00251879       0.00033191       0.01881560
Pt       4.21082079       2.43111835      19.95723450        4       0.00000000       0.00150752      -0.00201424       0.02351308
Pt       7.01803476       2.43111845      19.95723434        4       0.00000000       0.00524217       0.00151420       0.01775896
Pt       2.80721406       4.86223731      19.95723412        4       0.00000000      -0.00224577       0.00082010       0.01752902
Pt       5.61442804       4.86223736      19.95723427        4       0.00000000       0.00776275       0.00119515       0.01959378
Pt       8.42164140       4.86223726      19.95723442        4       0.00000000      -0.00269775       0.00217376      -0.04547521
Pt       1.40360736       0.81037259      22.29206790        3       0.00000000       0.00114816      -0.00730302      -0.02212353
Pt       4.21082124       0.81037251      22.29206791        3       0.00000000       0.01058581      -0.00924897      -0.06032136
Pt       7.01803474       0.81037259      22.29206782        3       0.00000000       0.01222071      -0.00744483      -0.01270419
Pt       2.80721449       3.24149124      22.29206775        3       0.00000000      -0.00245743      -0.00495570      -0.07046799
Pt       5.61442762       3.24149121      22.29206790        3       0.00000000       0.00764346      -0.00467172      -0.06964842
Pt       8.42164156       3.24149119      22.29206804        3       0.00000000       0.00339729       0.05427565      -0.12620670
Pt       4.21082091       5.67260997      22.29206796        3       0.00000000      -0.00330570      -0.00726725      -0.02203594
Pt       7.01803484       5.67261040      22.29206779        3       0.00000000       0.05253841      -0.03554523      -0.08813065
Pt       9.82524824       5.67261062      22.29206803        3       0.00000000      -0.04464727      -0.04407194      -0.12570480
Pt      -0.00000056       1.62074570      24.58417379        2       0.00000000      -0.03052943      -0.22689776       0.29338971
Pt       2.80721437       1.62074546      24.58417393        2       0.00000000      -0.01507422       0.01225144      -0.02383954
Pt       5.61442780       1.62074538      24.58417375        2       0.00000000      -0.01747238       0.02849854      -0.02126960
Pt       1.40360638       4.05186440      24.58417386        2       0.00000000      -0.05789460       0.05856954      -0.09671062
Pt       4.21082088       4.05186404      24.58417376        2       0.00000000      -0.00587865       0.02143754      -0.01469837
Pt       7.01803504       4.05186408      24.58417405        2       0.00000000       0.00455121       0.05110061      -0.05821229
Pt       2.80721280       6.48298343      24.58417370        2       0.00000000       0.17210656       0.13585097       0.25309169
Pt       5.61442799       6.48298326      24.58417388        2       0.00000000      -0.20993097       0.13801689       0.27529463
Pt       8.42164221       6.48298341      24.58417380        2       0.00000000      -0.01954562      -0.02314669      -0.10491001
Pt      -0.01170014       0.02930583      27.07381741        1       0.00000000       0.01728244       0.00397102       0.02996879
Pt       2.80391518       0.02484535      26.90004448        1       0.00000000      -0.00498416      -0.00724657       0.00886552
Pt       5.57759093       0.02628229      26.89301771        1       0.00000000       0.01615443      -0.00472844       0.00561186
Pt       1.38834961       2.47259251      26.88946962        1       0.00000000       0.00205873      -0.00020056       0.00409884
Pt       4.18313999       2.46188028      26.91711521        1       0.00000000       0.04308955      -0.00331990      -0.01333629
Pt       6.99110155       2.47102170      26.89672155        1       0.00000000       0.00265388       0.00946246      -0.00849353
Pt       2.77712817       4.88582964      26.89632121        1       0.00000000       0.01392360      -0.01120541       0.00464395
Pt       5.59820061       4.88704701      26.90356295        1       0.00000000       0.00809213      -0.02127250      -0.00046081
Pt       8.39760177       4.89499366      26.92416136        1       0.00000000       0.01668247      -0.03276888      -0.01147518
N       -0.06406575       0.13183747      29.08699197        0       1.00000000       0.01539196      -0.02627461      -0.00693397
H        0.90183741       0.12334878      29.45372181        0       0.00000000      -0.01898731      -0.01816144      -0.00449999
H       -0.52778345      -0.71025266      29.46535966        0       0.00000000       0.01819476      -0.00173765      -0.01412019
