39
Lattice="8.421641763931781 0.0 0.0 4.2108208819658905 7.293355709136913 0.0 0.0 0.0 46.87624170604845" Properties=species:S:1:pos:R:3:tags:I:1:initial_magmoms:R:1:forces:R:3 charge=0 spin=0 energy=-202.05302811053656 free_energy=-202.05302811053656 stress="0.010045583359897137 1.3094313544570468e-05 -6.0178659623488784e-05 1.3094313544570468e-05 0.010050834156572819 -3.6571920645656064e-05 -6.0178659623488784e-05 -3.6571920645656064e-05 -0.0002790900180116296" pbc="T T T"
Pt      -0.00000014       0.00000001      19.95723434        4       0.00000000       0.00173031       0.00122988       0.01361519
Pt       2.80721406      -0.00000017      19.95723453        4       0.00000000       0.00163453      -0.00474802       0.01804802
Pt       5.61442782      -0.00000007      19.95723459        4       0.00000000       0.00138255      -0.00359533       0.01885381
Pt       1.40360721       2.43111843      19.95723438        4       0.00000000      -0.00328790       0.00420516       0.01979840
Pt       4.21082079       2.43111835      19.95723450        4       0.00000000       0.00085045       0.00031334       0.02378912
Pt       7.01803476       2.43111845      19.95723434        4       0.00000000       0.00604490       0.00720351       0.01717629
Pt       2.80721406       4.86223731      19.95723412        4       0.00000000      -0.00228555       0.00244597       0.01696227
Pt       5.61442804       4.86223736      19.95723427        4       0.00000000       0.00905590       0.00294488       0.01882777
Pt       8.42164140       4.86223726      19.95723442        4       0.00000000       0.00231093       0.00098055      -0.04542182
Pt       1.40360736       0.81037259      22.29206790        3       0.00000000       0.00517152      -0.00149932      -0.01893363
Pt       4.21082124       0.81037251      22.29206791        3       0.00000000       0.00757641      -0.00314006      -0.07084040
Pt       7.01803474       0.81037259      22.29206782        3       0.00000000       0.00912606       0.00225618      -0.02079787
Pt       2.80721449       3.24149124      22.29206775        3       0.00000000      -0.00117037       0.00163117      -0.07127950
Pt       5.61442762       3.24149121      22.29206790        3       0.00000000       0.00485152       0.00691364      -0.05671657
Pt       8.42164156       3.24149119      22.29206804        3       0.00000000       0.00897607       0.06485044      -0.10967612
Pt       4.21082091       5.67260997      22.29206796        3       0.00000000       0.00202855       0.00654143      -0.01666947
Pt       7.01803484       5.67261040      22.29206779        3       0.00000000       0.06275595      -0.02088913      -0.11214584
Pt       9.82524824       5.67261062      22.29206803        3       0.00000000      -0.04076928      -0.02677849      -0.11812638
Pt      -0.00000056       1.62074570      24.58417379        2       0.00000000      -0.00698062      -0.23113821       0.28011680
Pt       2.80721437       1.62074546      24.58417393        2       0.00000000      -0.02090561      -0.00780342      -0.01263985
Pt       5.61442780       1.62074538      24.58417375        2       0.00000000      -0.01641831      -0.00391348      -0.02659750
Pt       1.40360638       4.05186440      24.58417386        2       0.00000000      -0.06409312      -0.01181384      -0.06779292
Pt       4.21082088       4.05186404      24.58417376        2       0.00000000      -0.01235461      -0.01035513      -0.02942855
Pt       7.01803504       4.05186408      24.58417405        2       0.00000000       0.02789663       0.01721239      -0.10037793
Pt       2.80721280       6.48298343      24.58417370        2       0.00000000       0.19522418       0.10484305       0.26912692
Pt       5.61442799       6.48298326      24.58417388        2       0.00000000      -0.20775364       0.11459585       0.27974436
Pt       8.42164221       6.48298341      24.58417380        2       0.00000000      -0.03716652      -0.04910579      -0.07529268
Pt      -0.02976722      -0.01320364      27.07455438        1       0.00000000       0.00636899      -0.00401555       0.00748117
Pt       2.79348767      -0.01198723      26.90355087        1       0.00000000      -0.02366073      -0.01234784       0.00370796
Pt       5.57750823      -0.00984166      26.89086863        1       0.00000000      -0.00755561      -0.00184902       0.00705089
Pt       1.38588193       2.42545959      26.90381981        1       0.00000000      -0.01765011      -0.00531167       0.00169883
Pt       4.18763174       2.42012708      26.91601229        1       0.00000000       0.01029530       0.00783664      -0.00873859
Pt       6.99374046       2.43503358      26.89456256        1       0.00000000       0.00887948       0.02266485       0.00074109
Pt       2.77809891       4.83719716      26.89246952        1       0.00000000      -0.00773827      -0.00966171       0.00401867
Pt       5.60447176       4.84153500      26.89442441        1       0.00000000       0.02016341      -0.00127564      -0.00113112
Pt       8.40565115       4.85491415      26.92528950        1       0.00000000      -0.01860704      -0.01678463      -0.02005353
N       -0.23952362      -0.14324464      29.07585049        0       1.00000000       0.03615094       0.01959260      -0.02418452
H       -0.26126605       0.80518931      29.48116795        0       0.00000000       0.02468387       0.02625608       0.00507471
H        0.57977336      -0.62119556      29.48185785        0       0.00000000       0.03523896       0.01150853       0.00101230
