39
Lattice="8.421641763931781 0.0 0.0 4.2108208819658905 7.293355709136913 0.0 0.0 0.0 46.87624170604845" Properties=species:S:1:pos:R:3:tags:I:1:initial_magmoms:R:1:forces:R:3 charge=0 spin=0 energy=-202.0639648475971 free_energy=-202.0639648475971 stress="0.010103476233780384 -6.551884871441871e-05 -5.709663309971802e-05 -6.551884871441871e-05 0.010034994222223759 4.993935363017954e-05 -5.709663309971802e-05 4.993935363017954e-05 -0.00026644603349268436" pbc="T T T"
Pt      -0.00000014       0.00000001      19.95723434        4       0.00000000       0.00170507      -0.00285770       0.01377846
Pt       2.80721406      -0.00000017      19.95723453        4       0.00000000       0.00412001      -0.00953831       0.01625557
Pt       5.61442782      -0.00000007      19.95723459        4       0.00000000      -0.00037077      -0.00842643       0.01956220
Pt       1.40360721       2.43111843      19.95723438        4       0.00000000      -0.00258220      -0.00007514       0.01887756
Pt       4.21082079       2.43111835      19.95723450        4       0.00000000       0.00128408      -0.00217187       0.02350939
Pt       7.01803476       2.43111845      19.95723434        4       0.00000000       0.00497987       0.00150633       0.01794478
Pt       2.80721406       4.86223731      19.95723412        4       0.00000000      -0.00227868       0.00084141       0.01769274
Pt       5.61442804       4.86223736      19.95723427        4       0.00000000       0.00808514       0.00097072       0.01946801
Pt       8.42164140       4.86223726      19.95723442        4       0.00000000      -0.00302019       0.00250553      -0.04560503
Pt       1.40360736       0.81037259      22.29206790        3       0.00000000       0.00062213      -0.00799973      -0.02227396
Pt       4.21082124       0.81037251      22.29206791        3       0.00000000       0.00955087      -0.01015474      -0.06188042
Pt       7.01803474       0.81037259      22.29206782        3       0.00000000       0.01151878      -0.00795308      -0.01096614
Pt       2.80721449       3.24149124      22.29206775        3       0.00000000      -0.00324599      -0.00621033      -0.07093497
Pt       5.61442762       3.24149121      22.29206790        3       0.00000000       0.00697229      -0.00536809      -0.06919021
Pt       8.42164156       3.24149119      22.29206804        3       0.00000000       0.00307143       0.05427565      -0.12789100
Pt       4.21082091       5.67260997      22.29206796        3       0.00000000      -0.00373388      -0.00853415      -0.02253119
Pt       7.01803484       5.67261040      22.29206779        3       0.00000000       0.05204038      -0.03594928      -0.08754586
Pt       9.82524824       5.67261062      22.29206803        3       0.00000000      -0.04494282      -0.04475072      -0.12579775
Pt      -0.00000056       1.62074570      24.58417379        2       0.00000000      -0.03212637      -0.23044343       0.29886872
Pt       2.80721437       1.62074546      24.58417393        2       0.00000000      -0.01330423       0.01519514      -0.01310292
Pt       5.61442780       1.62074538      24.58417375        2       0.00000000      -0.00794760       0.03041844      -0.01520081
Pt       1.40360638       4.05186440      24.58417386        2       0.00000000      -0.05284595       0.06141561      -0.09687700
Pt       4.21082088       4.05186404      24.58417376        2       0.00000000      -0.00258920       0.02684282      -0.01615327
Pt       7.01803504       4.05186408      24.58417405        2       0.00000000       0.00140568       0.05125898      -0.05326907
Pt       2.80721280       6.48298343      24.58417370        2       0.00000000       0.17065123       0.13899811       0.26265481
Pt       5.61442799       6.48298326      24.58417388        2       0.00000000      -0.20890522       0.14194459       0.27442911
Pt       8.42164221       6.48298341      24.58417380        2       0.00000000      -0.02037682      -0.01869171      -0.10638338
Pt      -0.01301875       0.03046522      27.07616562        1       0.00000000       0.02985512       0.00899990       0.01600562
Pt       2.80361377       0.02737640      26.90173401        1       0.00000000      -0.00019775       0.00398650       0.00215059
Pt       5.57367849       0.02893510      26.89424575        1       0.00000000       0.04109907      -0.00366720       0.00192374
Pt       1.38677905       2.47522314      26.88926766        1       0.00000000       0.02601852      -0.00566993       0.00507689
Pt       4.19262591       2.46711293      26.91521072        1       0.00000000       0.00995529      -0.01585023      -0.00947307
Pt       6.99799142       2.47535188      26.90058547        1       0.00000000      -0.01976744       0.00158948      -0.02235660
Pt       2.78070289       4.88592966      26.89760359        1       0.00000000       0.00199967      -0.00413612      -0.00395067
Pt       5.59950254       4.89382130      26.90561162        1       0.00000000       0.01390127      -0.04061382      -0.00656355
Pt       8.39990228       4.89823119      26.92236556        1       0.00000000       0.01613533      -0.03236850      -0.00330324
N       -0.05959537       0.12177656      29.08805909        0       1.00000000       0.01156640      -0.01765839       0.02319213
H        0.90456886       0.11833008      29.45985098        0       0.00000000      -0.02131288      -0.01642569      -0.02624696
H       -0.52050459      -0.72253816      29.46433480        0       0.00000000       0.01301031      -0.00523461      -0.01389352
