39
Lattice="8.421641763931781 0.0 0.0 4.2108208819658905 7.293355709136913 0.0 0.0 0.0 46.87624170604845" Properties=species:S:1:pos:R:3:tags:I:1:initial_magmoms:R:1:forces:R:3 charge=0 spin=0 energy=-202.06091690448187 free_energy=-202.06091690448187 stress="0.01009365450590849 -0.00010116934572579339 -0.00011508769966894761 -0.00010116934572579339 0.009979926981031895 7.656310481252149e-05 -0.00011508769966894761 7.656310481252149e-05 -0.0003279177180957049" pbc="T T T"
Pt      -0.00000014       0.00000001      19.95723434        4       0.00000000       0.00258190      -0.00208218       0.01379708
Pt       2.80721406      -0.00000017      19.95723453        4       0.00000000       0.00470431      -0.00947681       0.01755869
Pt       5.61442782      -0.00000007      19.95723459        4       0.00000000       0.00088187      -0.00669314       0.02038381
Pt       1.40360721       2.43111843      19.95723438        4       0.00000000      -0.00160868       0.00134801       0.01855958
Pt       4.21082079       2.43111835      19.95723450        4       0.00000000       0.00194661      -0.00154269       0.02352256
Pt       7.01803476       2.43111845      19.95723434        4       0.00000000       0.00626249       0.00319350       0.01781759
Pt       2.80721406       4.86223731      19.95723412        4       0.00000000      -0.00037635       0.00089907       0.01696511
Pt       5.61442804       4.86223736      19.95723427        4       0.00000000       0.00985731       0.00212395       0.01852194
Pt       8.42164140       4.86223726      19.95723442        4       0.00000000      -0.00266076       0.00186346      -0.04548815
Pt       1.40360736       0.81037259      22.29206790        3       0.00000000       0.00339872      -0.00376544      -0.02554079
Pt       4.21082124       0.81037251      22.29206791        3       0.00000000       0.01372160      -0.00805331      -0.06607191
Pt       7.01803474       0.81037259      22.29206782        3       0.00000000       0.01458161      -0.00553502      -0.01285610
Pt       2.80721449       3.24149124      22.29206775        3       0.00000000      -0.00074486      -0.00425838      -0.06903170
Pt       5.61442762       3.24149121      22.29206790        3       0.00000000       0.01037813      -0.00399676      -0.06549854
Pt       8.42164156       3.24149119      22.29206804        3       0.00000000       0.00824525       0.05708480      -0.13081802
Pt       4.21082091       5.67260997      22.29206796        3       0.00000000      -0.00040256      -0.00426533      -0.02103551
Pt       7.01803484       5.67261040      22.29206779        3       0.00000000       0.05755988      -0.03052113      -0.07848695
Pt       9.82524824       5.67261062      22.29206803        3       0.00000000      -0.04262654      -0.03936680      -0.12983297
Pt      -0.00000056       1.62074570      24.58417379        2       0.00000000      -0.03399788      -0.20764259       0.26514718
Pt       2.80721437       1.62074546      24.58417393        2       0.00000000      -0.02378639       0.00918717      -0.01271763
Pt       5.61442780       1.62074538      24.58417375        2       0.00000000      -0.02525912       0.01558542      -0.01539109
Pt       1.40360638       4.05186440      24.58417386        2       0.00000000      -0.07355514       0.04029843      -0.09914516
Pt       4.21082088       4.05186404      24.58417376        2       0.00000000      -0.01765736       0.01184889      -0.01910765
Pt       7.01803504       4.05186408      24.58417405        2       0.00000000      -0.00191296       0.04740107      -0.08881886
Pt       2.80721280       6.48298343      24.58417370        2       0.00000000       0.17041694       0.13294877       0.27224609
Pt       5.61442799       6.48298326      24.58417388        2       0.00000000      -0.23177451       0.14245006       0.28865445
Pt       8.42164221       6.48298341      24.58417380        2       0.00000000      -0.03726448      -0.02186991      -0.09423659
Pt      -0.02833505       0.02018324      27.07362902        1       0.00000000       0.02493182      -0.01515891      -0.00899156
Pt       2.78418471       0.01885881      26.90164990        1       0.00000000      -0.00156528      -0.00160123       0.01796492
Pt       5.56104966       0.01374018      26.89362381        1       0.00000000       0.03757485       0.01829149       0.00145945
Pt       1.37707201       2.46393229      26.89375410        1       0.00000000       0.00757155      -0.00227661      -0.01026407
Pt       4.17753631       2.45323707      26.91981770        1       0.00000000       0.01227792      -0.00951246      -0.02288635
Pt       6.98096964       2.47356029      26.89436092        1       0.00000000       0.00440978      -0.04202480       0.00090025
Pt       2.76543487       4.87203863      26.89481128        1       0.00000000       0.00944491      -0.00559930      -0.00794883
Pt       5.58597334       4.87674203      26.90145557        1       0.00000000       0.00154292      -0.00139090       0.01719624
Pt       8.38303792       4.88668915      26.92206051        1       0.00000000       0.04062058      -0.02281392       0.00110494
N       -0.15521810       0.09113855      29.08274144        0       1.00000000      -0.00350754      -0.00021648      -0.02424386
H        0.68174164       0.56097513      29.46074347        0       0.00000000       0.04220504       0.00710944       0.01489050
H       -0.14637429      -0.86894598      29.45990735        0       0.00000000       0.01358442      -0.04196937       0.02172170
