39
Lattice="8.421641763931781 0.0 0.0 4.2108208819658905 7.293355709136913 0.0 0.0 0.0 46.87624170604845" Properties=species:S:1:pos:R:3:tags:I:1:initial_magmoms:R:1:forces:R:3 charge=0 spin=0 energy=-201.93395615008734 free_energy=-201.93395615008734 stress="0.009798324666917324 4.5258064346853644e-05 4.69309525215067e-05 4.5258064346853644e-05 0.009772527031600475 2.352417868678458e-05 4.69309525215067e-05 2.352417868678458e-05 -0.0002917770470958203" pbc="T T T"
Pt      -0.00000014       0.00000001      19.95723434        4       0.00000000       0.00135368       0.00144658       0.01552371
Pt       2.80721406      -0.00000017      19.95723453        4       0.00000000       0.00460989      -0.00645081       0.01997872
Pt       5.61442782      -0.00000007      19.95723459        4       0.00000000      -0.00065969      -0.00719496       0.02051943
Pt       1.40360721       2.43111843      19.95723438        4       0.00000000      -0.00412291       0.00783435       0.02153677
Pt       4.21082079       2.43111835      19.95723450        4       0.00000000       0.00123195       0.00110728       0.02351788
Pt       7.01803476       2.43111845      19.95723434        4       0.00000000       0.00474570       0.00712113       0.01637729
Pt       2.80721406       4.86223731      19.95723412        4       0.00000000      -0.00595019       0.00134440       0.02024466
Pt       5.61442804       4.86223736      19.95723427        4       0.00000000       0.00957743       0.00163821       0.01745589
Pt       8.42164140       4.86223726      19.95723442        4       0.00000000      -0.00188980      -0.00160186      -0.05479879
Pt       1.40360736       0.81037259      22.29206790        3       0.00000000       0.00745295      -0.00062151      -0.03660933
Pt       4.21082124       0.81037251      22.29206791        3       0.00000000       0.00830134       0.00309120      -0.06707421
Pt       7.01803474       0.81037259      22.29206782        3       0.00000000       0.01143290       0.00740456      -0.03194332
Pt       2.80721449       3.24149124      22.29206775        3       0.00000000       0.00492931      -0.00119674      -0.06822563
Pt       5.61442762       3.24149121      22.29206790        3       0.00000000       0.00640912       0.00803466      -0.06723542
Pt       8.42164156       3.24149119      22.29206804        3       0.00000000       0.00577406       0.04927767      -0.10038647
Pt       4.21082091       5.67260997      22.29206796        3       0.00000000       0.00843769       0.00739455      -0.03301357
Pt       7.01803484       5.67261040      22.29206779        3       0.00000000       0.05040050      -0.01754192      -0.10392773
Pt       9.82524824       5.67261062      22.29206803        3       0.00000000      -0.03662767      -0.02408950      -0.07329682
Pt      -0.00000056       1.62074570      24.58417379        2       0.00000000      -0.02061253      -0.22051921       0.26283172
Pt       2.80721437       1.62074546      24.58417393        2       0.00000000      -0.01734989      -0.00486485      -0.03288030
Pt       5.61442780       1.62074538      24.58417375        2       0.00000000      -0.02765906      -0.01064033      -0.02894025
Pt       1.40360638       4.05186440      24.58417386        2       0.00000000      -0.06686448       0.00732971      -0.10483978
Pt       4.21082088       4.05186404      24.58417376        2       0.00000000      -0.02203490      -0.01158904      -0.02729295
Pt       7.01803504       4.05186408      24.58417405        2       0.00000000       0.03938220       0.02554588      -0.13881913
Pt       2.80721280       6.48298343      24.58417370        2       0.00000000       0.24326232       0.13160452       0.40646818
Pt       5.61442799       6.48298326      24.58417388        2       0.00000000      -0.19542082       0.09838423       0.24646102
Pt       8.42164221       6.48298341      24.58417380        2       0.00000000      -0.02666727      -0.06123929      -0.09905704
Pt      -0.05232251      -0.02720571      27.03623756        1       0.00000000      -0.00851326      -0.00291508       0.01670988
Pt       2.79940238      -0.01530438      26.89698779        1       0.00000000       0.00518737      -0.00071701      -0.00337302
Pt       5.56459929      -0.01228517      26.90134617        1       0.00000000       0.01270499       0.00152605      -0.00307319
Pt       1.38642877       2.43506020      26.89699863        1       0.00000000       0.00042366       0.00184228      -0.00240373
Pt       4.18749578       2.41918166      26.91801950        1       0.00000000      -0.00202003      -0.00244099       0.00622787
Pt       6.98361984       2.44274851      26.89647116        1       0.00000000      -0.00367915      -0.00509682      -0.00484084
Pt       2.76892600       4.82591195      26.90192811        1       0.00000000       0.00837375       0.01266690      -0.00170871
Pt       5.60616088       4.83108703      26.89450988        1       0.00000000      -0.00424450      -0.00146214      -0.00510002
Pt       8.39757269       4.84858257      26.92516373        1       0.00000000      -0.00231391       0.00081778       0.00729457
N        0.02023922       0.01122872      28.99074673        0       1.00000000       0.03058049       0.01015226      -0.01261024
H        0.46619760      -0.73054971      29.52979397        0       0.00000000      -0.00582119      -0.00346097      -0.00055678
H       -0.40295505       0.76379108      29.53308286        0       0.00000000      -0.01212024      -0.00192111       0.00085924
