39
Lattice="8.421641763931781 0.0 0.0 4.2108208819658905 7.293355709136913 0.0 0.0 0.0 46.87624170604845" Properties=species:S:1:pos:R:3:tags:I:1:initial_magmoms:R:1:forces:R:3 charge=0 spin=0 energy=-202.063970569643 free_energy=-202.063970569643 stress="0.009992620907723904 4.951307346345857e-06 -1.4667824871139601e-05 4.951307346345857e-06 0.010141754522919655 -7.547168206656352e-05 -1.4667824871139601e-05 -7.547168206656352e-05 -0.0002659496385604143" pbc="T T T"
Pt      -0.00000014       0.00000001      19.95723434        4       0.00000000       0.00162998       0.00290215       0.01378058
Pt       2.80721406      -0.00000017      19.95723453        4       0.00000000       0.00042018      -0.00237831       0.01763543
Pt       5.61442782      -0.00000007      19.95723459        4       0.00000000       0.00135152      -0.00219114       0.01893311
Pt       1.40360721       2.43111843      19.95723438        4       0.00000000      -0.00489333       0.00653756       0.01943298
Pt       4.21082079       2.43111835      19.95723450        4       0.00000000       0.00123747       0.00221706       0.02351669
Pt       7.01803476       2.43111845      19.95723434        4       0.00000000       0.00618684       0.00832731       0.01626264
Pt       2.80721406       4.86223731      19.95723412        4       0.00000000      -0.00381097       0.00355801       0.01799989
Pt       5.61442804       4.86223736      19.95723427        4       0.00000000       0.00747519       0.00388526       0.01953903
Pt       8.42164140       4.86223726      19.95723442        4       0.00000000      -0.00068113      -0.00390113      -0.04562767
Pt       1.40360736       0.81037259      22.29206790        3       0.00000000       0.00922431       0.00097615      -0.02275182
Pt       4.21082124       0.81037251      22.29206791        3       0.00000000       0.00694820       0.00033641      -0.07112338
Pt       7.01803474       0.81037259      22.29206782        3       0.00000000       0.00658222       0.00461386      -0.02227191
Pt       2.80721449       3.24149124      22.29206775        3       0.00000000       0.00116969       0.00870446      -0.06918571
Pt       5.61442762       3.24149121      22.29206790        3       0.00000000       0.00406917       0.01341129      -0.06165674
Pt       8.42164156       3.24149119      22.29206804        3       0.00000000       0.00505087       0.06299591      -0.08748478
Pt       4.21082091       5.67260997      22.29206796        3       0.00000000       0.00120551       0.01399786      -0.01077947
Pt       7.01803484       5.67261040      22.29206779        3       0.00000000       0.06118692      -0.01654883      -0.12579605
Pt       9.82524824       5.67261062      22.29206803        3       0.00000000      -0.04858770      -0.02445461      -0.12792681
Pt      -0.00000056       1.62074570      24.58417379        2       0.00000000      -0.01837999      -0.25178820       0.27425668
Pt       2.80721437       1.62074546      24.58417393        2       0.00000000      -0.02186903      -0.01557290      -0.01630993
Pt       5.61442780       1.62074538      24.58417375        2       0.00000000      -0.00669863      -0.01897491      -0.01298491
Pt       1.40360638       4.05186440      24.58417386        2       0.00000000      -0.04486420      -0.02460765      -0.05284718
Pt       4.21082088       4.05186404      24.58417376        2       0.00000000      -0.02237391      -0.02211232      -0.01490719
Pt       7.01803504       4.05186408      24.58417405        2       0.00000000       0.02649596      -0.00833960      -0.10619308
Pt       2.80721280       6.48298343      24.58417370        2       0.00000000       0.21565154       0.08717769       0.29889709
Pt       5.61442799       6.48298326      24.58417388        2       0.00000000      -0.20567407       0.07816564       0.26255199
Pt       8.42164221       6.48298341      24.58417380        2       0.00000000      -0.02673806      -0.07664975      -0.09696984
Pt      -0.02000570      -0.02647060      27.07603148        1       0.00000000      -0.02212408       0.02105477       0.01768967
Pt       2.80001597      -0.03486840      26.89747695        1       0.00000000       0.00249060       0.00358711      -0.00355079
Pt       5.58474643      -0.03672249      26.88923764        1       0.00000000      -0.00868885       0.02545585       0.00531328
Pt       1.38381024       2.40224045      26.90566166        1       0.00000000       0.02819107       0.03321030      -0.00680028
Pt       4.18872238       2.39726805      26.91529239        1       0.00000000       0.00902158       0.01688063      -0.00976778
Pt       6.99614763       2.41416682      26.90180587        1       0.00000000      -0.00360891      -0.00131114       0.00201846
Pt       2.77901504       4.82281944      26.90071300        1       0.00000000       0.00838246      -0.01871110      -0.02303844
Pt       5.60978084       4.81240098      26.89425985        1       0.00000000      -0.01737330       0.03734298       0.00183634
Pt       8.40141560       4.82527446      26.92237993        1       0.00000000       0.01979562       0.03023675      -0.00345648
N       -0.07537377      -0.11177726      29.08801193        0       1.00000000       0.00637604       0.01026068       0.01548656
H       -0.55464985       0.72456360      29.45977771        0       0.00000000       0.02263643      -0.00362789      -0.02320891
H        0.88620356      -0.08910435      29.46395484        0       0.00000000       0.00358661       0.01533377      -0.01051134
