39
Lattice="8.421641763931781 0.0 0.0 4.2108208819658905 7.293355709136913 0.0 0.0 0.0 46.87624170604845" Properties=species:S:1:pos:R:3:tags:I:1:initial_magmoms:R:1:forces:R:3 charge=0 spin=0 energy=-202.062355045351 free_energy=-202.062355045351 stress="0.010107683017849922 9.301738464273512e-05 0.00011754309525713325 9.301738464273512e-05 0.009994561783969402 6.0916303482372314e-05 0.00011754309525713325 6.0916303482372314e-05 -0.00031176346237771213" pbc="T T T"
Pt      -0.00000014       0.00000001      19.95723434        4       0.00000000      -0.00298947      -0.00122502       0.01359714
Pt       2.80721406      -0.00000017      19.95723453        4       0.00000000      -0.00043012      -0.00738365       0.01768657
Pt       5.61442782      -0.00000007      19.95723459        4       0.00000000      -0.00330678      -0.00895212       0.01874651
Pt       1.40360721       2.43111843      19.95723438        4       0.00000000      -0.00651643       0.00275312       0.02018061
Pt       4.21082079       2.43111835      19.95723450        4       0.00000000      -0.00203622      -0.00083238       0.02344894
Pt       7.01803476       2.43111845      19.95723434        4       0.00000000       0.00084828      -0.00041405       0.01694985
Pt       2.80721406       4.86223731      19.95723412        4       0.00000000      -0.01009945       0.00021590       0.01776100
Pt       5.61442804       4.86223736      19.95723427        4       0.00000000       0.00157296       0.00077861       0.01854386
Pt       8.42164140       4.86223726      19.95723442        4       0.00000000       0.00329557       0.00150615      -0.04535889
Pt       1.40360736       0.81037259      22.29206790        3       0.00000000      -0.01240819      -0.01016450      -0.01269261
Pt       4.21082124       0.81037251      22.29206791        3       0.00000000      -0.00862027      -0.00679498      -0.06490377
Pt       7.01803474       0.81037259      22.29206782        3       0.00000000      -0.00399616       0.00281242      -0.02003902
Pt       2.80721449       3.24149124      22.29206775        3       0.00000000      -0.01426403      -0.00787205      -0.06516144
Pt       5.61442762       3.24149121      22.29206790        3       0.00000000      -0.00325017       0.00270984      -0.06940768
Pt       8.42164156       3.24149119      22.29206804        3       0.00000000      -0.01319566       0.05713217      -0.13020386
Pt       4.21082091       5.67260997      22.29206796        3       0.00000000      -0.00470818      -0.00174058      -0.02420140
Pt       7.01803484       5.67261040      22.29206779        3       0.00000000       0.04553769      -0.03606316      -0.13134146
Pt       9.82524824       5.67261062      22.29206803        3       0.00000000      -0.05496188      -0.03454417      -0.08125783
Pt      -0.00000056       1.62074570      24.58417379        2       0.00000000       0.03253605      -0.21598066       0.26914358
Pt       2.80721437       1.62074546      24.58417393        2       0.00000000       0.02881608       0.01502213      -0.03398316
Pt       5.61442780       1.62074538      24.58417375        2       0.00000000       0.02099282       0.00099560      -0.02175163
Pt       1.40360638       4.05186440      24.58417386        2       0.00000000       0.00296037       0.04432715      -0.06535994
Pt       4.21082088       4.05186404      24.58417376        2       0.00000000       0.01329745       0.02197660      -0.01577709
Pt       7.01803504       4.05186408      24.58417405        2       0.00000000       0.07695965       0.04502866      -0.12005572
Pt       2.80721280       6.48298343      24.58417370        2       0.00000000       0.23069504       0.12493847       0.29205582
Pt       5.61442799       6.48298326      24.58417388        2       0.00000000      -0.16452824       0.13698263       0.26216984
Pt       8.42164221       6.48298341      24.58417380        2       0.00000000       0.04484070      -0.02014744      -0.06096089
Pt       0.02792506       0.01228839      27.07452390        1       0.00000000      -0.01450824      -0.00529304       0.00936796
Pt       2.85610791       0.01879001      26.89504502        1       0.00000000       0.00403326      -0.02227926      -0.00184866
Pt       5.64459959       0.01910539      26.90622625        1       0.00000000      -0.03552572      -0.02267343      -0.00740617
Pt       1.44641772       2.46086553      26.89435213        1       0.00000000      -0.01834414       0.01605824      -0.00151613
Pt       4.24809391       2.45033426      26.91478461        1       0.00000000      -0.01793377      -0.01027249      -0.00246113
Pt       7.04899689       2.46480794      26.89191170        1       0.00000000      -0.00784650      -0.02337356       0.00899290
Pt       2.83864868       4.87549740      26.90667518        1       0.00000000      -0.03805778      -0.01787707      -0.00765439
Pt       5.66024035       4.86875075      26.89042250        1       0.00000000      -0.02515138       0.00512005       0.00946211
Pt       8.45600419       4.87953799      26.92326929        1       0.00000000       0.00827548       0.00420166      -0.01317399
N        0.14042574       0.08034212      29.08671259        0       1.00000000      -0.00644513      -0.00357335      -0.04109091
H        0.12289139      -0.88286848      29.45665044        0       0.00000000      -0.01267975      -0.03030768       0.01969439
H       -0.70105740       0.54889798      29.45738799        0       0.00000000      -0.03285795       0.00520531       0.01980701
