39
Lattice="8.421641763931781 0.0 0.0 4.2108208819658905 7.293355709136913 0.0 0.0 0.0 46.87624170604845" Properties=species:S:1:pos:R:3:tags:I:1:initial_magmoms:R:1:forces:R:3 charge=0 spin=0 energy=-201.93396187213324 free_energy=-201.93396187213324 stress="0.009816734120249748 -3.407349140616134e-05 -4.43807766714599e-05 -3.407349140616134e-05 0.009754081256687641 2.785690776363481e-05 -4.43807766714599e-05 2.785690776363481e-05 -0.00029183499282225966" pbc="T T T"
Pt      -0.00000014       0.00000001      19.95723434        4       0.00000000      -0.00193291       0.00044379       0.01551694
Pt       2.80721406      -0.00000017      19.95723453        4       0.00000000       0.00182618      -0.00583077       0.02018446
Pt       5.61442782      -0.00000007      19.95723459        4       0.00000000      -0.00472093      -0.00750138       0.02158249
Pt       1.40360721       2.43111843      19.95723438        4       0.00000000      -0.00620684       0.00748604       0.01742620
Pt       4.21082079       2.43111835      19.95723450        4       0.00000000      -0.00156935       0.00051022       0.02351592
Pt       7.01803476       2.43111845      19.95723434        4       0.00000000       0.00327267       0.00721721       0.02000232
Pt       2.80721406       4.86223731      19.95723412        4       0.00000000      -0.00854847       0.00055692       0.01641454
Pt       5.61442804       4.86223736      19.95723427        4       0.00000000       0.00655568       0.00303317       0.02050438
Pt       8.42164140       4.86223726      19.95723442        4       0.00000000       0.00233522      -0.00083705      -0.05479117
Pt       1.40360736       0.81037259      22.29206790        3       0.00000000      -0.01067006       0.00351132      -0.03319920
Pt       4.21082124       0.81037251      22.29206791        3       0.00000000      -0.00148370       0.00487765      -0.06838002
Pt       7.01803474       0.81037259      22.29206782        3       0.00000000      -0.00323988       0.00681744      -0.03656538
Pt       2.80721449       3.24149124      22.29206775        3       0.00000000      -0.01017812       0.00146672      -0.06727208
Pt       5.61442762       3.24149121      22.29206790        3       0.00000000      -0.00678663       0.00570551      -0.06684478
Pt       8.42164156       3.24149119      22.29206804        3       0.00000000      -0.01000193       0.05240975      -0.10389078
Pt       4.21082091       5.67260997      22.29206796        3       0.00000000      -0.01208625       0.00621201      -0.03183469
Pt       7.01803484       5.67261040      22.29206779        3       0.00000000       0.03922632      -0.01967569      -0.07329378
Pt       9.82524824       5.67261062      22.29206803        3       0.00000000      -0.04554352      -0.01961012      -0.10043392
Pt      -0.00000056       1.62074570      24.58417379        2       0.00000000       0.01252194      -0.21846950       0.24644430
Pt       2.80721437       1.62074546      24.58417393        2       0.00000000       0.02098312      -0.01346416      -0.02713446
Pt       5.61442780       1.62074538      24.58417375        2       0.00000000       0.01284211      -0.01261425      -0.03288218
Pt       1.40360638       4.05186440      24.58417386        2       0.00000000      -0.04171776       0.02130858      -0.13880351
Pt       4.21082088       4.05186404      24.58417376        2       0.00000000       0.02309116      -0.01855145      -0.02910483
Pt       7.01803504       4.05186408      24.58417405        2       0.00000000       0.06643353       0.00766732      -0.09925490
Pt       2.80721280       6.48298343      24.58417370        2       0.00000000       0.20125534       0.09243053       0.26284644
Pt       5.61442799       6.48298326      24.58417388        2       0.00000000      -0.23562597       0.14490272       0.40645319
Pt       8.42164221       6.48298341      24.58417380        2       0.00000000       0.02701704      -0.06157734      -0.10467684
Pt       0.04971922      -0.03170123      27.03623885        1       0.00000000       0.00685615      -0.00597688       0.01667790
Pt       2.85781804      -0.01499505      26.90192812        1       0.00000000      -0.01506626       0.00072157      -0.00166225
Pt       5.61960097      -0.01684669      26.89700171        1       0.00000000      -0.00178657      -0.00055862      -0.00241206
Pt       1.43472200       2.43953658      26.89451772        1       0.00000000       0.00338256      -0.00295103      -0.00513621
Pt       4.23282371       2.41688972      26.91800606        1       0.00000000       0.00311946      -0.00052738       0.00628944
Pt       7.03519762       2.43201175      26.89698767        1       0.00000000      -0.00197978       0.00483789      -0.00337860
Pt       2.81435537       4.82661754      26.89647990        1       0.00000000       0.00612121      -0.00041027      -0.00492361
Pt       5.64998315       4.82523237      26.90134521        1       0.00000000      -0.00768569       0.01025070      -0.00305934
Pt       8.44550437       4.84821979      26.92514980        1       0.00000000       0.00045809      -0.00240472       0.00735685
N       -0.01990705       0.01194079      28.99074514        0       1.00000000      -0.02404639       0.02195627      -0.01259708
H        0.39960443       0.76899505      29.52979946        0       0.00000000       0.00588440      -0.00357124      -0.00068443
H       -0.45996210      -0.73087948      29.53308103        0       0.00000000       0.00769500      -0.00979145       0.00100017
