39
Lattice="8.421641763931781 0.0 0.0 4.2108208819658905 7.293355709136913 0.0 0.0 0.0 46.87624170604845" Properties=species:S:1:pos:R:3:tags:I:1:initial_magmoms:R:1:forces:R:3 charge=0 spin=0 energy=-202.06903076556586 free_energy=-202.06903076556586 stress="0.01005546934902668 -1.4534332876792178e-05 -5.04849504068261e-06 -1.4534332876792178e-05 0.010044973343610764 3.0338880605995655e-05 -5.04849504068261e-06 3.0338880605995655e-05 -0.00031610956648364663" pbc="T T T"
Pt      -0.00000014       0.00000001      19.95723434        4       0.00000000       0.00021653      -0.00280920       0.01369118
Pt       2.80721406      -0.00000017      19.95723453        4       0.00000000       0.00304375      -0.00886985       0.01523179
Pt       5.61442782      -0.00000007      19.95723459        4       0.00000000      -0.00174882      -0.00886849       0.01762589
Pt       1.40360721       2.43111843      19.95723438        4       0.00000000      -0.00425698       0.00000631       0.01963671
Pt       4.21082079       2.43111835      19.95723450        4       0.00000000       0.00001330      -0.00247229       0.02348526
Pt       7.01803476       2.43111845      19.95723434        4       0.00000000       0.00385459      -0.00000098       0.01820368
Pt       2.80721406       4.86223731      19.95723412        4       0.00000000      -0.00490702       0.00061701       0.01862463
Pt       5.61442804       4.86223736      19.95723427        4       0.00000000       0.00573331       0.00063132       0.01995486
Pt       8.42164140       4.86223726      19.95723442        4       0.00000000      -0.00005082       0.00618687      -0.04502606
Pt       1.40360736       0.81037259      22.29206790        3       0.00000000      -0.00367160      -0.01102005      -0.01750982
Pt       4.21082124       0.81037251      22.29206791        3       0.00000000       0.00377022      -0.01151506      -0.06029190
Pt       7.01803474       0.81037259      22.29206782        3       0.00000000       0.00650622      -0.00786751      -0.01260385
Pt       2.80721449       3.24149124      22.29206775        3       0.00000000      -0.00706964      -0.00830395      -0.07037344
Pt       5.61442762       3.24149121      22.29206790        3       0.00000000       0.00300754      -0.00355115      -0.07130773
Pt       8.42164156       3.24149119      22.29206804        3       0.00000000      -0.00160735       0.05855067      -0.12658384
Pt       4.21082091       5.67260997      22.29206796        3       0.00000000      -0.00371399      -0.01038691      -0.02506931
Pt       7.01803484       5.67261040      22.29206779        3       0.00000000       0.04685211      -0.03810991      -0.10551502
Pt       9.82524824       5.67261062      22.29206803        3       0.00000000      -0.04383491      -0.04332486      -0.11038873
Pt      -0.00000056       1.62074570      24.58417379        2       0.00000000      -0.00645599      -0.25178847       0.34546089
Pt       2.80721437       1.62074546      24.58417393        2       0.00000000      -0.00023815       0.02624150      -0.02164014
Pt       5.61442780       1.62074538      24.58417375        2       0.00000000      -0.00082264       0.02726340      -0.02860811
Pt       1.40360638       4.05186440      24.58417386        2       0.00000000      -0.03265919       0.05517350      -0.08103871
Pt       4.21082088       4.05186404      24.58417376        2       0.00000000       0.00252619       0.03513317      -0.02027642
Pt       7.01803504       4.05186408      24.58417405        2       0.00000000       0.02654809       0.06029730      -0.07683575
Pt       2.80721280       6.48298343      24.58417370        2       0.00000000       0.17952253       0.13993952       0.24227752
Pt       5.61442799       6.48298326      24.58417388        2       0.00000000      -0.17843416       0.14058554       0.24901840
Pt       8.42164221       6.48298341      24.58417380        2       0.00000000       0.00070218      -0.01216859      -0.10232265
Pt       0.00153404       0.04667812      27.07753020        1       0.00000000      -0.00261263      -0.03655218      -0.00346488
Pt       2.82333590       0.03504912      26.89918115        1       0.00000000       0.00072603      -0.01201303      -0.00435113
Pt       5.59751387       0.03591482      26.89778430        1       0.00000000       0.00407412      -0.01780921      -0.00208104
Pt       1.40771246       2.47671215      26.89447474        1       0.00000000       0.00629453       0.00603543      -0.00106020
Pt       4.21216120       2.46992729      26.91400251        1       0.00000000      -0.00671680      -0.00478463      -0.00242574
Pt       7.01265901       2.47759240      26.89480595        1       0.00000000       0.00065510       0.00972356       0.00166711
Pt       2.79615986       4.89344628      26.89851884        1       0.00000000       0.01135963      -0.01236457      -0.00176346
Pt       5.62207503       4.89357628      26.89932147        1       0.00000000      -0.00589789      -0.01547216      -0.00371464
Pt       8.42130037       4.90432789      26.92068336        1       0.00000000      -0.00405167      -0.03724033      -0.00052718
N       -0.00708845       0.03846373      29.09118387        0       1.00000000       0.00149055      -0.00512410       0.00383701
H       -0.82273414      -0.49697190      29.43050407        0       0.00000000      -0.00030547      -0.00228343       0.00010732
H        0.82893271      -0.46261812      29.43300161        0       0.00000000       0.00215854      -0.00168415       0.00595736
