39
Lattice="8.421641763931781 0.0 0.0 4.2108208819658905 7.293355709136913 0.0 0.0 0.0 46.87624170604845" Properties=species:S:1:pos:R:3:tags:I:1:initial_magmoms:R:1:forces:R:3 charge=0 spin=0 energy=-202.062355045351 free_energy=-202.062355045351 stress="0.010107911191880703 9.295398922404274e-05 0.0001174343706225045 9.295398922404274e-05 0.009994878433644772 6.0852231399621814e-05 0.0001174343706225045 6.0852231399621814e-05 -0.00031177059281617403" pbc="T T T"
Pt      -0.00000014       0.00000001      19.95723434        4       0.00000000      -0.00298939      -0.00122514       0.01359585
Pt       2.80721406      -0.00000017      19.95723453        4       0.00000000      -0.00043127      -0.00738471       0.01768547
Pt       5.61442782      -0.00000007      19.95723459        4       0.00000000      -0.00330751      -0.00895033       0.01874662
Pt       1.40360721       2.43111843      19.95723438        4       0.00000000      -0.00651788       0.00275269       0.02017965
Pt       4.21082079       2.43111835      19.95723450        4       0.00000000      -0.00203604      -0.00083246       0.02344854
Pt       7.01803476       2.43111845      19.95723434        4       0.00000000       0.00084804      -0.00041582       0.01694974
Pt       2.80721406       4.86223731      19.95723412        4       0.00000000      -0.01009850       0.00021436       0.01776115
Pt       5.61442804       4.86223736      19.95723427        4       0.00000000       0.00157092       0.00077890       0.01854374
Pt       8.42164140       4.86223726      19.95723442        4       0.00000000       0.00329619       0.00150693      -0.04535755
Pt       1.40360736       0.81037259      22.29206790        3       0.00000000      -0.01241111      -0.01016564      -0.01268953
Pt       4.21082124       0.81037251      22.29206791        3       0.00000000      -0.00862158      -0.00679548      -0.06490217
Pt       7.01803474       0.81037259      22.29206782        3       0.00000000      -0.00399950       0.00281215      -0.02003347
Pt       2.80721449       3.24149124      22.29206775        3       0.00000000      -0.01426737      -0.00787219      -0.06515828
Pt       5.61442762       3.24149121      22.29206790        3       0.00000000      -0.00325193       0.00270904      -0.06941094
Pt       8.42164156       3.24149119      22.29206804        3       0.00000000      -0.01319985       0.05713625      -0.13020495
Pt       4.21082091       5.67260997      22.29206796        3       0.00000000      -0.00470962      -0.00174361      -0.02419811
Pt       7.01803484       5.67261040      22.29206779        3       0.00000000       0.04553701      -0.03606583      -0.13134490
Pt       9.82524824       5.67261062      22.29206803        3       0.00000000      -0.05496517      -0.03454609      -0.08126762
Pt      -0.00000056       1.62074570      24.58417379        2       0.00000000       0.03254917      -0.21598655       0.26911142
Pt       2.80721437       1.62074546      24.58417393        2       0.00000000       0.02883074       0.01502950      -0.03403530
Pt       5.61442780       1.62074538      24.58417375        2       0.00000000       0.02100168       0.00097427      -0.02175618
Pt       1.40360638       4.05186440      24.58417386        2       0.00000000       0.00298043       0.04433453      -0.06529184
Pt       4.21082088       4.05186404      24.58417376        2       0.00000000       0.01328249       0.02199925      -0.01575844
Pt       7.01803504       4.05186408      24.58417405        2       0.00000000       0.07698211       0.04503497      -0.12013141
Pt       2.80721280       6.48298343      24.58417370        2       0.00000000       0.23066966       0.12492155       0.29203814
Pt       5.61442799       6.48298326      24.58417388        2       0.00000000      -0.16452467       0.13699387       0.26214844
Pt       8.42164221       6.48298341      24.58417380        2       0.00000000       0.04485618      -0.02013747      -0.06089073
Pt       0.02792191       0.01229325      27.07452263        1       0.00000000      -0.01443924      -0.00531634       0.00936477
Pt       2.85609746       0.01881480      26.89504538        1       0.00000000       0.00415389      -0.02238677      -0.00185239
Pt       5.64461845       0.01911000      26.90623973        1       0.00000000      -0.03563406      -0.02271464      -0.00747121
Pt       1.44642873       2.46084111      26.89435273        1       0.00000000      -0.01834157       0.01622782      -0.00151187
Pt       4.24810392       2.45033698      26.91477215        1       0.00000000      -0.01794601      -0.01024986      -0.00241925
Pt       7.04901201       2.46481721      26.89190257        1       0.00000000      -0.00787979      -0.02342702       0.00905678
Pt       2.83865822       4.87551331      26.90669148        1       0.00000000      -0.03810336      -0.01796125      -0.00773679
Pt       5.66026792       4.86875527      26.89041332        1       0.00000000      -0.02527936       0.00514397       0.00951923
Pt       8.45599694       4.87952998      26.92327111        1       0.00000000       0.00840182       0.00428759      -0.01320111
N        0.14040013       0.08032616      29.08672531        0       1.00000000      -0.00739809      -0.00412863      -0.04038033
H       -0.70116393       0.54882951      29.45735658        0       0.00000000      -0.03211899       0.00499844       0.01949518
H        0.12277320      -0.88292747      29.45662199        0       0.00000000      -0.01248815      -0.02955034       0.01935979
