39
Lattice="8.421641763931781 0.0 0.0 4.2108208819658905 7.293355709136913 0.0 0.0 0.0 46.87624170604845" Properties=species:S:1:pos:R:3:tags:I:1:initial_magmoms:R:1:forces:R:3 charge=0 spin=0 energy=-202.0623607673969 free_energy=-202.0623607673969 stress="0.009941285476088524 1.950947080331389e-06 -6.302409929048736e-06 1.950947080331389e-06 0.010161147452890873 -0.00013278904953040183 -6.302409929048736e-06 -0.00013278904953040183 -0.0003117239975836128" pbc="T T T"
Pt      -0.00000014       0.00000001      19.95723434        4       0.00000000       0.00043852       0.00319623       0.01360374
Pt       2.80721406      -0.00000017      19.95723453        4       0.00000000      -0.00076952      -0.00053726       0.01695795
Pt       5.61442782      -0.00000007      19.95723459        4       0.00000000      -0.00011671      -0.00175725       0.01855041
Pt       1.40360721       2.43111843      19.95723438        4       0.00000000      -0.00609085       0.00734913       0.01870860
Pt       4.21082079       2.43111835      19.95723450        4       0.00000000       0.00030838       0.00219304       0.02344983
Pt       7.01803476       2.43111845      19.95723434        4       0.00000000       0.00522563       0.00864387       0.01769726
Pt       2.80721406       4.86223731      19.95723412        4       0.00000000      -0.00618642       0.00406882       0.01774259
Pt       5.61442804       4.86223736      19.95723427        4       0.00000000       0.00563632       0.00426317       0.02021148
Pt       8.42164140       4.86223726      19.95723442        4       0.00000000      -0.00034736      -0.00362027      -0.04536724
Pt       1.40360736       0.81037259      22.29206790        3       0.00000000       0.00435694       0.00204734      -0.02005257
Pt       4.21082124       0.81037251      22.29206791        3       0.00000000       0.00395983       0.00149985      -0.06961797
Pt       7.01803474       0.81037259      22.29206782        3       0.00000000       0.00090131       0.00500731      -0.02439610
Pt       2.80721449       3.24149124      22.29206775        3       0.00000000      -0.00161461       0.01083369      -0.06469133
Pt       5.61442762       3.24149121      22.29206790        3       0.00000000       0.00037850       0.01627903      -0.06509418
Pt       8.42164156       3.24149119      22.29206804        3       0.00000000      -0.00244308       0.06487351      -0.08122872
Pt       4.21082091       5.67260997      22.29206796        3       0.00000000      -0.00256529       0.01579223      -0.01250691
Pt       7.01803484       5.67261040      22.29206779        3       0.00000000       0.05604690      -0.01716742      -0.13021892
Pt       9.82524824       5.67261062      22.29206803        3       0.00000000      -0.05398241      -0.02140725      -0.13139811
Pt      -0.00000056       1.62074570      24.58417379        2       0.00000000      -0.00715522      -0.26233503       0.29196405
Pt       2.80721437       1.62074546      24.58417393        2       0.00000000      -0.00966704      -0.01872313      -0.02160463
Pt       5.61442780       1.62074538      24.58417375        2       0.00000000       0.01233776      -0.02227875      -0.01566385
Pt       1.40360638       4.05186440      24.58417386        2       0.00000000      -0.03995764      -0.02892324      -0.06102993
Pt       4.21082088       4.05186404      24.58417376        2       0.00000000      -0.00129038      -0.03248488      -0.03404402
Pt       7.01803504       4.05186408      24.58417405        2       0.00000000       0.03691122      -0.02475910      -0.06532975
Pt       2.80721280       6.48298343      24.58417370        2       0.00000000       0.20091324       0.07407922       0.26207823
Pt       5.61442799       6.48298326      24.58417388        2       0.00000000      -0.20318261       0.07974917       0.26913539
Pt       8.42164221       6.48298341      24.58417380        2       0.00000000       0.00038885      -0.08903455      -0.12004644
Pt      -0.00332955      -0.03031256      27.07452689        1       0.00000000       0.00272937       0.01525091       0.00939064
Pt       2.82089194      -0.04368910      26.89192966        1       0.00000000      -0.01630244       0.01867935       0.00891768
Pt       5.59716340      -0.04295020      26.89037938        1       0.00000000       0.01700116       0.01945959       0.00952777
Pt       1.40507569       2.39545552      26.90623910        1       0.00000000      -0.00189735       0.04201547      -0.00746775
Pt       4.20881410       2.38924806      26.91482078        1       0.00000000       0.00010822       0.02051072      -0.00260135
Pt       7.01381301       2.39727722      26.90667152        1       0.00000000       0.00345508       0.04190619      -0.00768302
Pt       2.79905999       4.81050456      26.89503692        1       0.00000000      -0.02139056       0.00762026      -0.00177758
Pt       5.61872882       4.81028242      26.89439250        1       0.00000000       0.02329290       0.00783127      -0.00152845
Pt       8.41944110       4.82386422      26.92321112        1       0.00000000      -0.00056722      -0.00944448      -0.01297819
N       -0.00063928      -0.16170878      29.08671904        0       1.00000000      -0.00008930       0.00763605      -0.04082277
H       -0.82603666       0.33511150      29.45665113        0       0.00000000      -0.01955822       0.02592384       0.01951984
H        0.82589230       0.33275719      29.45739434        0       0.00000000       0.02078398       0.02576330       0.01969431
