39
Lattice="8.421641763931781 0.0 0.0 4.2108208819658905 7.293355709136913 0.0 0.0 0.0 46.87624170604845" Properties=species:S:1:pos:R:3:tags:I:1:initial_magmoms:R:1:forces:R:3 charge=0 spin=0 energy=-202.05035210040472 free_energy=-202.05035210040472 stress="0.010005328804254532 3.6146286674920702e-06 -8.061668268055655e-06 3.6146286674920702e-06 0.010042616166174412 -8.660898311063647e-05 -8.061668268055655e-06 -8.660898311063647e-05 -0.0002847950381692499" pbc="T T T"
Pt      -0.00000014       0.00000001      19.95723434        4       0.00000000       0.00226884       0.00022344       0.01381960
Pt       2.80721406      -0.00000017      19.95723453        4       0.00000000       0.00198414      -0.00508020       0.01578859
Pt       5.61442782      -0.00000007      19.95723459        4       0.00000000       0.00158603      -0.00478027       0.01777652
Pt       1.40360721       2.43111843      19.95723438        4       0.00000000      -0.00448444       0.00346691       0.02062496
Pt       4.21082079       2.43111835      19.95723450        4       0.00000000       0.00143068      -0.00091500       0.02371885
Pt       7.01803476       2.43111845      19.95723434        4       0.00000000       0.00715251       0.00592177       0.01761971
Pt       2.80721406       4.86223731      19.95723412        4       0.00000000      -0.00322718       0.00086745       0.01820686
Pt       5.61442804       4.86223736      19.95723427        4       0.00000000       0.00913335       0.00113184       0.02007142
Pt       8.42164140       4.86223726      19.95723442        4       0.00000000       0.00224435       0.00238681      -0.04578923
Pt       1.40360736       0.81037259      22.29206790        3       0.00000000       0.00797932      -0.01154390      -0.01916891
Pt       4.21082124       0.81037251      22.29206791        3       0.00000000       0.00784745      -0.01009996      -0.07233787
Pt       7.01803474       0.81037259      22.29206782        3       0.00000000       0.00963745      -0.00589543      -0.02046741
Pt       2.80721449       3.24149124      22.29206775        3       0.00000000       0.00220759      -0.00290674      -0.06844915
Pt       5.61442762       3.24149121      22.29206790        3       0.00000000       0.00449724       0.00169372      -0.05979778
Pt       8.42164156       3.24149119      22.29206804        3       0.00000000       0.00857124       0.06360879      -0.08991175
Pt       4.21082091       5.67260997      22.29206796        3       0.00000000       0.00323898       0.00026896      -0.02186410
Pt       7.01803484       5.67261040      22.29206779        3       0.00000000       0.05847494      -0.02568227      -0.12119331
Pt       9.82524824       5.67261062      22.29206803        3       0.00000000      -0.03974358      -0.02992295      -0.11886480
Pt      -0.00000056       1.62074570      24.58417379        2       0.00000000      -0.01802483      -0.24435370       0.35031816
Pt       2.80721437       1.62074546      24.58417393        2       0.00000000      -0.02181316       0.02433220      -0.00941488
Pt       5.61442780       1.62074538      24.58417375        2       0.00000000      -0.00610963       0.02465179      -0.01196230
Pt       1.40360638       4.05186440      24.58417386        2       0.00000000      -0.04880594       0.00899455      -0.04433789
Pt       4.21082088       4.05186404      24.58417376        2       0.00000000      -0.03293734       0.00208166      -0.03435221
Pt       7.01803504       4.05186408      24.58417405        2       0.00000000       0.03906910       0.01770673      -0.11685934
Pt       2.80721280       6.48298343      24.58417370        2       0.00000000       0.17340873       0.11300234       0.25353441
Pt       5.61442799       6.48298326      24.58417388        2       0.00000000      -0.18318066       0.12676373       0.20974357
Pt       8.42164221       6.48298341      24.58417380        2       0.00000000      -0.03727100      -0.04718778      -0.09453044
Pt      -0.03153769       0.01578618      27.06480320        1       0.00000000      -0.02005776       0.01870662       0.02651977
Pt       2.79300561       0.01195044      26.89833700        1       0.00000000       0.00115055      -0.00119187       0.01629561
Pt       5.56814383       0.01417479      26.88844543        1       0.00000000       0.02138326      -0.00059190       0.00532488
Pt       1.38080515       2.44803044      26.90881369        1       0.00000000      -0.00504706      -0.01699907      -0.01450819
Pt       4.18660243       2.44573966      26.91919224        1       0.00000000      -0.00303292      -0.00810420      -0.02222543
Pt       6.99199060       2.46254248      26.90397585        1       0.00000000       0.01061565      -0.04243298       0.00190708
Pt       2.77318039       4.86248502      26.89892395        1       0.00000000      -0.00948171      -0.01871501      -0.01115493
Pt       5.60611103       4.86422298      26.88228266        1       0.00000000      -0.00013925      -0.02100198       0.02408881
Pt       8.39946406       4.87670848      26.92635571        1       0.00000000       0.00751698      -0.01499545      -0.01634754
N       -0.15044517      -0.25072445      29.05987847        0       1.00000000       0.01734762       0.02817961      -0.03678402
H       -0.63998769       0.54812575      29.49172952        0       0.00000000       0.02816930       0.02791750      -0.00226619
H        0.79818442      -0.28270969      29.46389859        0       0.00000000       0.00644108       0.04049407       0.01722890
