39
Lattice="8.421641763931781 0.0 0.0 4.2108208819658905 7.293355709136913 0.0 0.0 0.0 46.87624170604845" Properties=species:S:1:pos:R:3:tags:I:1:initial_magmoms:R:1:forces:R:3 charge=0 spin=0 energy=-202.0688419380512 free_energy=-202.0688419380512 stress="0.010059251450002193 1.386040366924135e-05 2.4989563826238737e-05 1.386040366924135e-05 0.010043671354651451 -9.222642802342307e-06 2.4989563826238737e-05 -9.222642802342307e-06 -0.0003257178468629718" pbc="T T T"
Pt      -0.00000014       0.00000001      19.95723434        4       0.00000000      -0.00255116       0.00122960       0.01364347
Pt       2.80721406      -0.00000017      19.95723453        4       0.00000000      -0.00196212      -0.00330478       0.01826677
Pt       5.61442782      -0.00000007      19.95723459        4       0.00000000      -0.00233260      -0.00530684       0.01998192
Pt       1.40360721       2.43111843      19.95723438        4       0.00000000      -0.00680444       0.00600786       0.01753441
Pt       4.21082079       2.43111835      19.95723450        4       0.00000000      -0.00214407       0.00122503       0.02346486
Pt       7.01803476       2.43111845      19.95723434        4       0.00000000       0.00298954       0.00394393       0.01860595
Pt       2.80721406       4.86223731      19.95723412        4       0.00000000      -0.00924970       0.00176003       0.01528100
Pt       5.61442804       4.86223736      19.95723427        4       0.00000000       0.00209605       0.00370219       0.01974106
Pt       8.42164140       4.86223726      19.95723442        4       0.00000000       0.00555350      -0.00313618      -0.04515834
Pt       1.40360736       0.81037259      22.29206790        3       0.00000000      -0.01022141      -0.00166232      -0.01262068
Pt       4.21082124       0.81037251      22.29206791        3       0.00000000      -0.00464407      -0.00071804      -0.07157592
Pt       7.01803474       0.81037259      22.29206782        3       0.00000000      -0.00717480       0.00850987      -0.02554324
Pt       2.80721449       3.24149124      22.29206775        3       0.00000000      -0.01193391       0.00246343      -0.06003304
Pt       5.61442762       3.24149121      22.29206790        3       0.00000000      -0.00367022       0.01030024      -0.07040422
Pt       8.42164156       3.24149119      22.29206804        3       0.00000000      -0.01566923       0.05948555      -0.11019877
Pt       4.21082091       5.67260997      22.29206796        3       0.00000000      -0.00773161       0.00866244      -0.01736256
Pt       7.01803484       5.67261040      22.29206779        3       0.00000000       0.05161132      -0.02799370      -0.12672834
Pt       9.82524824       5.67261062      22.29206803        3       0.00000000      -0.05625147      -0.02136828      -0.10530541
Pt      -0.00000056       1.62074570      24.58417379        2       0.00000000       0.03139650      -0.22498704       0.24030937
Pt       2.80721437       1.62074546      24.58417393        2       0.00000000       0.02383514      -0.01309603      -0.02912693
Pt       5.61442780       1.62074538      24.58417375        2       0.00000000       0.02938526      -0.01990069      -0.01911816
Pt       1.40360638       4.05186440      24.58417386        2       0.00000000      -0.01022141       0.00504828      -0.10345103
Pt       4.21082088       4.05186404      24.58417376        2       0.00000000       0.02297112      -0.01272335      -0.02173064
Pt       7.01803504       4.05186408      24.58417405        2       0.00000000       0.06406300      -0.00018292      -0.08021908
Pt       2.80721280       6.48298343      24.58417370        2       0.00000000       0.21046950       0.08402642       0.24750243
Pt       5.61442799       6.48298326      24.58417388        2       0.00000000      -0.21404606       0.13108961       0.34577915
Pt       8.42164221       6.48298341      24.58417380        2       0.00000000       0.03958948      -0.05244760      -0.07597813
Pt       0.04144294      -0.02558250      27.07625703        1       0.00000000      -0.03834430       0.02479346      -0.01162361
Pt       2.85052587      -0.01844065      26.89497840        1       0.00000000       0.01147827      -0.00700016       0.00092960
Pt       5.63874665      -0.02237944      26.89976834        1       0.00000000      -0.01547278       0.01408444      -0.00605098
Pt       1.44286649       2.42769449      26.89785652        1       0.00000000      -0.01432290       0.00721113      -0.00206549
Pt       4.24317528       2.41079417      26.91351322        1       0.00000000       0.00341128       0.00663335      -0.00091770
Pt       7.05120536       2.42415179      26.89886876        1       0.00000000      -0.02031181       0.00071419      -0.00410620
Pt       2.82941961       4.83122038      26.89937419        1       0.00000000      -0.01023072       0.00118952      -0.00510893
Pt       5.65198184       4.83552401      26.89471311        1       0.00000000       0.00462950      -0.01104569      -0.00255621
Pt       8.45865775       4.84126750      26.92011317        1       0.00000000      -0.03218888       0.02317388       0.00124790
N        0.03651385      -0.01294925      29.08799965        0       1.00000000      -0.01499368       0.00751921       0.04529313
H       -0.81339104      -0.48830395      29.43357697        0       0.00000000       0.01242823       0.01032860      -0.00700831
H       -0.01640177       0.96039709      29.43127846        0       0.00000000      -0.00343444      -0.01822856      -0.01358902
