39
Lattice="8.421641763931781 0.0 0.0 4.2108208819658905 7.293355709136913 0.0 0.0 0.0 46.87624170604845" Properties=species:S:1:pos:R:3:tags:I:1:initial_magmoms:R:1:forces:R:3 charge=0 spin=0 energy=-202.0504035988178 free_energy=-202.0504035988178 stress="0.010025306604802608 -1.8479355276213028e-05 -7.080188515828922e-05 -1.8479355276213028e-05 0.010011768899857998 5.0726863264571875e-05 -7.080188515828922e-05 5.0726863264571875e-05 -0.000288800016278401" pbc="T T T"
Pt      -0.00000014       0.00000001      19.95723434        4       0.00000000      -0.00091479      -0.00205465       0.01377685
Pt       2.80721406      -0.00000017      19.95723453        4       0.00000000       0.00158978      -0.00919038       0.01764153
Pt       5.61442782      -0.00000007      19.95723459        4       0.00000000      -0.00354730      -0.00847475       0.02009604
Pt       1.40360721       2.43111843      19.95723438        4       0.00000000      -0.00490449       0.00104191       0.01775402
Pt       4.21082079       2.43111835      19.95723450        4       0.00000000      -0.00152063      -0.00081217       0.02369841
Pt       7.01803476       2.43111845      19.95723434        4       0.00000000       0.00239648       0.00230266       0.01816700
Pt       2.80721406       4.86223731      19.95723412        4       0.00000000      -0.00538167       0.00085380       0.01588815
Pt       5.61442804       4.86223736      19.95723427        4       0.00000000       0.00525467       0.00220292       0.02065234
Pt       8.42164140       4.86223726      19.95723442        4       0.00000000       0.00086669      -0.00316358      -0.04582965
Pt       1.40360736       0.81037259      22.29206790        3       0.00000000      -0.00991254      -0.00538716      -0.02039964
Pt       4.21082124       0.81037251      22.29206791        3       0.00000000      -0.00065350      -0.00465300      -0.05973338
Pt       7.01803474       0.81037259      22.29206782        3       0.00000000      -0.00127135      -0.00280501      -0.02175981
Pt       2.80721449       3.24149124      22.29206775        3       0.00000000      -0.01261502      -0.00169587      -0.07191695
Pt       5.61442762       3.24149121      22.29206790        3       0.00000000      -0.00343929      -0.00039499      -0.06890555
Pt       8.42164156       3.24149119      22.29206804        3       0.00000000      -0.00603121       0.04927517      -0.11879067
Pt       4.21082091       5.67260997      22.29206796        3       0.00000000      -0.01382239      -0.00120577      -0.01896573
Pt       7.01803484       5.67261040      22.29206779        3       0.00000000       0.05079911      -0.03933428      -0.08985249
Pt       9.82524824       5.67261062      22.29206803        3       0.00000000      -0.05154819      -0.03791668      -0.12125494
Pt      -0.00000056       1.62074570      24.58417379        2       0.00000000       0.01116863      -0.20705701       0.25307012
Pt       2.80721437       1.62074546      24.58417393        2       0.00000000       0.02295687      -0.00746933      -0.01280070
Pt       5.61442780       1.62074538      24.58417375        2       0.00000000       0.01864373       0.02615359      -0.03540573
Pt       1.40360638       4.05186440      24.58417386        2       0.00000000      -0.02088607       0.05453895      -0.09557737
Pt       4.21082088       4.05186404      24.58417376        2       0.00000000       0.03043847       0.00742062      -0.01001698
Pt       7.01803504       4.05186408      24.58417405        2       0.00000000       0.03178750       0.03764323      -0.04723733
Pt       2.80721280       6.48298343      24.58417370        2       0.00000000       0.20142141       0.09567347       0.20966272
Pt       5.61442799       6.48298326      24.58417388        2       0.00000000      -0.20238559       0.13810551       0.34861621
Pt       8.42164221       6.48298341      24.58417380        2       0.00000000      -0.00489336      -0.04111160      -0.12018504
Pt       0.02799851       0.01823212      27.06448512        1       0.00000000       0.03215756       0.01423577       0.03356878
Pt       2.84729633       0.00675827      26.90410021        1       0.00000000      -0.04519492       0.01316851       0.00150615
Pt       5.61959585       0.00540206      26.88255644        1       0.00000000      -0.01603619       0.01584375       0.02404897
Pt       1.43863160       2.46377779      26.88856482        1       0.00000000      -0.01120115      -0.01824281       0.00401466
Pt       4.23540219       2.44453788      26.91802060        1       0.00000000      -0.00703823       0.00773885      -0.01815493
Pt       7.03491997       2.46070890      26.89840309        1       0.00000000      -0.01052384       0.01529958      -0.00969221
Pt       2.82389133       4.86916496      26.89884829        1       0.00000000       0.00068412      -0.00600533       0.01490176
Pt       5.64009624       4.87353582      26.90821396        1       0.00000000      -0.01245130       0.01244464      -0.01247509
Pt       8.44533705       4.87468577      26.92487001        1       0.00000000      -0.01948115      -0.00340639      -0.01013551
N       -0.14090118       0.25550032      29.05990740        0       1.00000000       0.01326475      -0.02895777      -0.03764281
H       -0.64533203      -0.54815795      29.46475982        0       0.00000000       0.03352090      -0.02484236       0.01576614
H        0.79559910       0.27827216      29.49215400        0       0.00000000       0.00870339      -0.03976180      -0.00609763
