36
Lattice="8.421641763931781 0.0 0.0 4.2108208819658905 7.293355709136913 0.0 0.0 0.0 46.87624170604845" Properties=species:S:1:pos:R:3:tags:I:1:forces:R:3 charge=0 spin=0 energy=-186.93033381965532 free_energy=-186.93033381965532 stress="0.00856211967766285 -1.6284179560344114e-09 -6.639760963267349e-10 -1.6284179560344114e-09 0.008562121540307999 -2.376701058182107e-09 -6.639760963267349e-10 -2.376701058182107e-09 -0.0033283415250480175" pbc="T T T"
Pt       0.00000000       0.00000000      20.00000000        4       0.00000202      -0.00000293      -0.22563678
Pt       2.80721392       0.00000000      20.00000000        4       0.00000037      -0.00000209      -0.22563586
Pt       5.61442784       0.00000000      20.00000000        4      -0.00000255      -0.00000131      -0.22563517
Pt       1.40360696       2.43111857      20.00000000        4       0.00000131       0.00000005      -0.22563797
Pt       4.21082088       2.43111857      20.00000000        4       0.00000190       0.00000003      -0.22563614
Pt       7.01803480       2.43111857      20.00000000        4      -0.00000257      -0.00000021      -0.22563817
Pt       2.80721392       4.86223714      20.00000000        4       0.00000080       0.00000101      -0.22563757
Pt       5.61442784       4.86223714      20.00000000        4      -0.00000226       0.00000165      -0.22563593
Pt       8.42164176       4.86223714      20.00000000        4       0.00000135       0.00000261      -0.22563733
Pt       1.40360696       0.81037286      22.29208057        3       0.00000146      -0.00000384       0.21236134
Pt       4.21082088       0.81037286      22.29208057        3       0.00000365      -0.00000313       0.21236089
Pt       7.01803480       0.81037286      22.29208057        3      -0.00000391      -0.00000296       0.21236156
Pt       2.80721392       3.24149143      22.29208057        3       0.00000087      -0.00000076       0.21235915
Pt       5.61442784       3.24149143      22.29208057        3      -0.00000338       0.00000014       0.21236055
Pt       8.42164176       3.24149143      22.29208057        3       0.00000266       0.00000094       0.21236099
Pt       4.21082088       5.67261000      22.29208057        3       0.00000485       0.00000159       0.21235865
Pt       7.01803480       5.67261000      22.29208057        3      -0.00000233       0.00000347       0.21235976
Pt       9.82524872       5.67261000      22.29208057        3      -0.00000261       0.00000394       0.21236125
Pt       0.00000000       1.62074571      24.58416114        2       0.00000322      -0.00000155      -0.21236049
Pt       2.80721392       1.62074571      24.58416114        2       0.00000092      -0.00000285      -0.21235998
Pt       5.61442784       1.62074571      24.58416114        2      -0.00000300      -0.00000311      -0.21236065
Pt       1.40360696       4.05186428      24.58416114        2      -0.00000294       0.00000156      -0.21236053
Pt       4.21082088       4.05186428      24.58416114        2       0.00000485      -0.00000006      -0.21235985
Pt       7.01803480       4.05186428      24.58416114        2      -0.00000248       0.00000015      -0.21236068
Pt       2.80721392       6.48298285      24.58416114        2      -0.00000714       0.00000224      -0.21236086
Pt       5.61442784       6.48298285      24.58416114        2      -0.00000173       0.00000226      -0.21236090
Pt       8.42164176       6.48298285      24.58416114        2       0.00000523       0.00000375      -0.21235973
Pt       0.00000000       0.00000000      26.87624171        1       0.00000262      -0.00000208       0.22563723
Pt       2.80721392       0.00000000      26.87624171        1       0.00000063      -0.00000141       0.22563596
Pt       5.61442784       0.00000000      26.87624171        1      -0.00000221      -0.00000204       0.22563441
Pt       1.40360696       2.43111857      26.87624171        1       0.00000127      -0.00000027       0.22563827
Pt       4.21082088       2.43111857      26.87624171        1       0.00000202      -0.00000041       0.22563626
Pt       7.01803480       2.43111857      26.87624171        1      -0.00000246       0.00000015       0.22563827
Pt       2.80721392       4.86223714      26.87624171        1       0.00000038       0.00000167       0.22563747
Pt       5.61442784       4.86223714      26.87624171        1      -0.00000221       0.00000103       0.22563592
Pt       8.42164176       4.86223714      26.87624171        1       0.00000156       0.00000281       0.22563688
