36
Lattice="8.421641763931781 0.0 0.0 4.2108208819658905 7.293355709136913 0.0 0.0 0.0 46.87624170604845" Properties=species:S:1:pos:R:3:tags:I:1:forces:R:3 charge=0 spin=0 energy=-187.00367709663286 free_energy=-187.00367709663286 stress="0.010496648028492928 1.5625147842257547e-09 1.4451562169170984e-09 1.5625147842257547e-09 0.010496663860976696 7.631425491538835e-10 1.4451562169170984e-09 7.631425491538835e-10 4.6219156502047554e-05" pbc="T T T"
Pt      -0.00000001       0.00000015      19.95723445        4       0.00000180       0.00000048       0.01626789
Pt       2.80721394      -0.00000009      19.95723448        4      -0.00000176       0.00000298       0.01627105
Pt       5.61442781      -0.00000017      19.95723450        4      -0.00000041       0.00000382       0.01627108
Pt       1.40360720       2.43111836      19.95723436        4      -0.00000065       0.00000302       0.01628117
Pt       4.21082078       2.43111836      19.95723446        4       0.00000225       0.00000181       0.01627165
Pt       7.01803484       2.43111844      19.95723431        4      -0.00000154       0.00000176       0.01628030
Pt       2.80721414       4.86223727      19.95723413        4      -0.00000098      -0.00000541       0.01627816
Pt       5.61442797       4.86223736      19.95723433        4      -0.00000036      -0.00000461       0.01627784
Pt       8.42164142       4.86223724      19.95723439        4       0.00000129      -0.00000459       0.01627139
Pt       1.40360727       0.81037261      22.29206790        3      -0.00000151       0.00000353      -0.04298045
Pt       4.21082126       0.81037249      22.29206793        3      -0.00000149       0.00000544      -0.04298254
Pt       7.01803475       0.81037258      22.29206787        3       0.00000046       0.00000370      -0.04298303
Pt       2.80721449       3.24149123      22.29206778        3      -0.00000827       0.00000316      -0.04298423
Pt       5.61442761       3.24149123      22.29206789        3       0.00000407       0.00000199      -0.04298541
Pt       8.42164155       3.24149130      22.29206812        3       0.00000382      -0.00000110      -0.04298658
Pt       4.21082090       5.67260997      22.29206743        3       0.00000061       0.00000085      -0.04296540
Pt       7.01803489       5.67261038      22.29206778        3      -0.00000557      -0.00000486      -0.04297966
Pt       9.82524818       5.67261058      22.29206804        3       0.00000834      -0.00000998      -0.04298309
Pt      -0.00000057       1.62074568      24.58417368        2       0.00000497      -0.00000163       0.04298419
Pt       2.80721445       1.62074549      24.58417387        2      -0.00000791       0.00000374       0.04298289
Pt       5.61442780       1.62074538      24.58417368        2       0.00000208       0.00000543       0.04298148
Pt       1.40360635       4.05186441      24.58417386        2       0.00000676      -0.00000293       0.04298602
Pt       4.21082088       4.05186391      24.58417389        2       0.00000001       0.00000891       0.04298190
Pt       7.01803505       4.05186405      24.58417404        2      -0.00000420       0.00000514       0.04298428
Pt       2.80721273       6.48298348      24.58417381        2       0.00001594      -0.00000975       0.04298084
Pt       5.61442805       6.48298330      24.58417394        2      -0.00000753      -0.00000498       0.04297929
Pt       8.42164222       6.48298341      24.58417373        2      -0.00000890      -0.00000750       0.04298501
Pt       0.00000045      -0.00000000      26.91900750        1      -0.00000035      -0.00000021      -0.01628004
Pt       2.80721390      -0.00000010      26.91900729        1      -0.00000050       0.00000190      -0.01627065
Pt       5.61442790      -0.00000011      26.91900712        1      -0.00000020       0.00000094      -0.01626944
Pt       1.40360734       2.43111853      26.91900745        1      -0.00000014       0.00000202      -0.01628140
Pt       4.21082083       2.43111857      26.91900724        1       0.00000124       0.00000116      -0.01627177
Pt       7.01803491       2.43111866      26.91900729        1      -0.00000003      -0.00000074      -0.01627122
Pt       2.80721394       4.86223724      26.91900755        1      -0.00000319      -0.00000173      -0.01628147
Pt       5.61442795       4.86223740      26.91900730        1      -0.00000119      -0.00000173      -0.01628038
Pt       8.42164127       4.86223704      26.91900737        1       0.00000298      -0.00000021      -0.01627966
