36
Lattice="8.421641763931781 0.0 0.0 4.2108208819658905 7.293355709136913 0.0 0.0 0.0 46.87624170604845" Properties=species:S:1:pos:R:3:tags:I:1:forces:R:3 charge=0 spin=0 energy=-187.00367709663286 free_energy=-187.00367709663286 stress="0.010496633127331734 3.4536740134427646e-09 9.45798550588961e-10 3.4536740134427646e-09 0.010496657341718674 -7.706329324674854e-11 9.45798550588961e-10 -7.706329324674854e-11 4.620351319317706e-05" pbc="T T T"
Pt      -0.00000003       0.00000022      19.95723434        4       0.00000214      -0.00000300       0.01627945
Pt       2.80721396      -0.00000018      19.95723452        4      -0.00000256       0.00000218       0.01627103
Pt       5.61442778      -0.00000004      19.95723454        4       0.00000037       0.00000310       0.01627118
Pt       1.40360719       2.43111838      19.95723440        4       0.00000003       0.00000074       0.01627286
Pt       4.21082079       2.43111832      19.95723449        4       0.00000236       0.00000192       0.01627201
Pt       7.01803484       2.43111842      19.95723441        4      -0.00000228       0.00000094       0.01627245
Pt       2.80721406       4.86223725      19.95723409        4       0.00000209      -0.00000182       0.01628091
Pt       5.61442803       4.86223733      19.95723425        4      -0.00000290      -0.00000220       0.01627996
Pt       8.42164141       4.86223723      19.95723442        4       0.00000134      -0.00000279       0.01627146
Pt       1.40360730       0.81037260      22.29206788        3      -0.00000253       0.00000083      -0.04298106
Pt       4.21082126       0.81037254      22.29206791        3      -0.00000171       0.00000467      -0.04298253
Pt       7.01803479       0.81037259      22.29206783        3       0.00000165      -0.00000025      -0.04298304
Pt       2.80721452       3.24149125      22.29206775        3      -0.00000697       0.00000387      -0.04298186
Pt       5.61442760       3.24149123      22.29206789        3       0.00000329       0.00000294      -0.04298362
Pt       8.42164156       3.24149116      22.29206803        3       0.00000321       0.00000252      -0.04298012
Pt       4.21082093       5.67260998      22.29206800        3      -0.00000242       0.00000372      -0.04298505
Pt       7.01803487       5.67261039      22.29206775        3      -0.00000389      -0.00000503      -0.04297997
Pt       9.82524824       5.67261062      22.29206803        3       0.00000916      -0.00000964      -0.04298299
Pt      -0.00000058       1.62074570      24.58417378        2       0.00000520      -0.00000132       0.04298442
Pt       2.80721444       1.62074548      24.58417392        2      -0.00000814       0.00000374       0.04298308
Pt       5.61442778       1.62074537      24.58417373        2       0.00000210       0.00000525       0.04298138
Pt       1.40360636       4.05186440      24.58417384        2       0.00000634      -0.00000328       0.04298569
Pt       4.21082088       4.05186399      24.58417380        2      -0.00000227       0.00000485       0.04298234
Pt       7.01803502       4.05186406      24.58417406        2      -0.00000185       0.00000380       0.04298123
Pt       2.80721280       6.48298341      24.58417369        2       0.00001329      -0.00000837       0.04298273
Pt       5.61442796       6.48298324      24.58417387        2      -0.00000504      -0.00000179       0.04298036
Pt       8.42164221       6.48298340      24.58417380        2      -0.00000856      -0.00000733       0.04298459
Pt       0.00000047       0.00000001      26.91900746        1       0.00000111       0.00000102      -0.01627949
Pt       2.80721395      -0.00000013      26.91900723        1      -0.00000011       0.00000243      -0.01627103
Pt       5.61442778      -0.00000003      26.91900707        1      -0.00000114       0.00000081      -0.01626921
Pt       1.40360735       2.43111850      26.91900742        1      -0.00000008       0.00000188      -0.01628115
Pt       4.21082084       2.43111853      26.91900719        1       0.00000079       0.00000076      -0.01627201
Pt       7.01803488       2.43111864      26.91900724        1      -0.00000006      -0.00000123      -0.01627110
Pt       2.80721397       4.86223724      26.91900751        1      -0.00000454      -0.00000222      -0.01628130
Pt       5.61442797       4.86223740      26.91900728        1      -0.00000095      -0.00000162      -0.01627163
Pt       8.42164125       4.86223714      26.91900734        1       0.00000365      -0.00000007      -0.01627983
