36
Lattice="8.421641763931781 0.0 0.0 4.2108208819658905 7.293355709136913 0.0 0.0 0.0 46.87624170604845" Properties=species:S:1:pos:R:3:tags:I:1:forces:R:3 charge=0 spin=0 energy=-186.93033381965532 free_energy=-186.93033381965532 stress="0.00856211967766285 -1.6807585323519447e-09 -1.8772040866199546e-10 -1.6807585323519447e-09 0.008562121540307999 -2.8194981904761107e-09 -1.8772040866199546e-10 -2.8194981904761107e-09 -0.003328341757878661" pbc="T T T"
Pt       0.00000000       0.00000000      20.00000000        4       0.00000203      -0.00000293      -0.22563668
Pt       2.80721392       0.00000000      20.00000000        4       0.00000029      -0.00000208      -0.22563581
Pt       5.61442784       0.00000000      20.00000000        4      -0.00000247      -0.00000134      -0.22563517
Pt       1.40360696       2.43111857      20.00000000        4       0.00000120       0.00000014      -0.22563793
Pt       4.21082088       2.43111857      20.00000000        4       0.00000187       0.00000003      -0.22563612
Pt       7.01803480       2.43111857      20.00000000        4      -0.00000263      -0.00000025      -0.22563817
Pt       2.80721392       4.86223714      20.00000000        4       0.00000077       0.00000099      -0.22563758
Pt       5.61442784       4.86223714      20.00000000        4      -0.00000225       0.00000166      -0.22563599
Pt       8.42164176       4.86223714      20.00000000        4       0.00000139       0.00000257      -0.22563738
Pt       1.40360696       0.81037286      22.29208057        3       0.00000147      -0.00000383       0.21236129
Pt       4.21082088       0.81037286      22.29208057        3       0.00000365      -0.00000311       0.21236086
Pt       7.01803480       0.81037286      22.29208057        3      -0.00000390      -0.00000294       0.21236153
Pt       2.80721392       3.24149143      22.29208057        3       0.00000089      -0.00000074       0.21235913
Pt       5.61442784       3.24149143      22.29208057        3      -0.00000337       0.00000013       0.21236056
Pt       8.42164176       3.24149143      22.29208057        3       0.00000272       0.00000090       0.21236099
Pt       4.21082088       5.67261000      22.29208057        3       0.00000479       0.00000160       0.21235864
Pt       7.01803480       5.67261000      22.29208057        3      -0.00000229       0.00000349       0.21235976
Pt       9.82524872       5.67261000      22.29208057        3      -0.00000259       0.00000395       0.21236125
Pt       0.00000000       1.62074571      24.58416114        2       0.00000324      -0.00000152      -0.21236046
Pt       2.80721392       1.62074571      24.58416114        2       0.00000089      -0.00000289      -0.21235998
Pt       5.61442784       1.62074571      24.58416114        2      -0.00000300      -0.00000312      -0.21236070
Pt       1.40360696       4.05186428      24.58416114        2      -0.00000293       0.00000156      -0.21236055
Pt       4.21082088       4.05186428      24.58416114        2       0.00000483      -0.00000004      -0.21235985
Pt       7.01803480       4.05186428      24.58416114        2      -0.00000247       0.00000013      -0.21236070
Pt       2.80721392       6.48298285      24.58416114        2      -0.00000714       0.00000224      -0.21236084
Pt       5.61442784       6.48298285      24.58416114        2      -0.00000173       0.00000227      -0.21236086
Pt       8.42164176       6.48298285      24.58416114        2       0.00000519       0.00000379      -0.21235974
Pt       0.00000000       0.00000000      26.87624171        1       0.00000263      -0.00000210       0.22563729
Pt       2.80721392       0.00000000      26.87624171        1       0.00000069      -0.00000138       0.22563592
Pt       5.61442784       0.00000000      26.87624171        1      -0.00000216      -0.00000207       0.22563443
Pt       1.40360696       2.43111857      26.87624171        1       0.00000130      -0.00000028       0.22563823
Pt       4.21082088       2.43111857      26.87624171        1       0.00000191      -0.00000038       0.22563632
Pt       7.01803480       2.43111857      26.87624171        1      -0.00000249       0.00000013       0.22563827
Pt       2.80721392       4.86223714      26.87624171        1       0.00000042       0.00000164       0.22563744
Pt       5.61442784       4.86223714      26.87624171        1      -0.00000224       0.00000109       0.22563593
Pt       8.42164176       4.86223714      26.87624171        1       0.00000157       0.00000283       0.22563691
