38
Lattice="8.421641763931781 0.0 0.0 4.2108208819658905 7.293355709136913 0.0 0.0 0.0 46.87624170604845" Properties=species:S:1:pos:R:3:tags:I:1:forces:R:3 charge=0 spin=0 energy=-202.87962436319103 free_energy=-202.87962436319103 stress="0.010213056579232216 1.57104259415064e-05 6.504548764496576e-06 1.57104259415064e-05 0.009602492675185204 -1.2820576557714958e-05 6.504548764496576e-06 -1.2820576557714958e-05 -0.00035315638524480164" pbc="T T T"
Pt      -0.00000000       0.00000021      19.95723433        4       0.00337554       0.00060837       0.01800960
Pt       2.80721396      -0.00000008      19.95723446        4      -0.00033596       0.00044813       0.02182761
Pt       5.61442779      -0.00000016      19.95723449        4      -0.00084269      -0.00158477       0.01997530
Pt       1.40360720       2.43111835      19.95723435        4      -0.02004574      -0.00046473      -0.00637536
Pt       4.21082080       2.43111834      19.95723443        4       0.01958062      -0.00156345      -0.00392772
Pt       7.01803483       2.43111844      19.95723431        4      -0.00085313       0.00454507       0.00694782
Pt       2.80721405       4.86223724      19.95723403        4      -0.00082784      -0.00870143       0.02541944
Pt       5.61442805       4.86223734      19.95723421        4       0.00241901      -0.00140562       0.01530488
Pt       8.42164144       4.86223725      19.95723437        4      -0.00038651      -0.00420659       0.01308487
Pt       1.40360728       0.81037258      22.29206792        3       0.01046269       0.05572860      -0.11289383
Pt       4.21082126       0.81037248      22.29206794        3      -0.01127710       0.05246907      -0.11196426
Pt       7.01803474       0.81037256      22.29206786        3      -0.00151524       0.00828920      -0.06872256
Pt       2.80721448       3.24149124      22.29206779        3       0.00175525      -0.08057662      -0.21869779
Pt       5.61442762       3.24149125      22.29206790        3      -0.03297317      -0.01690593      -0.08341993
Pt       8.42164155       3.24149130      22.29206809        3       0.03146873      -0.01591175      -0.08149251
Pt       4.21082091       5.67260997      22.29206801        3       0.00199471      -0.01268121      -0.01867289
Pt       7.01803488       5.67261037      22.29206781        3       0.00138772       0.00826222      -0.01013927
Pt       9.82524819       5.67261065      22.29206808        3       0.00229917      -0.02305905      -0.02016820
Pt      -0.00000056       1.62074567      24.58417371        2       0.03287824       0.00820380      -0.07128261
Pt       2.80721444       1.62074547      24.58417389        2      -0.00008083       0.04691259      -0.16422835
Pt       5.61442780       1.62074536      24.58417372        2      -0.03254578       0.00474875      -0.06288988
Pt       1.40360637       4.05186441      24.58417386        2      -0.17240277       0.12592244       0.26462275
Pt       4.21082088       4.05186402      24.58417378        2       0.16417737       0.11732283       0.26636624
Pt       7.01803505       4.05186404      24.58417403        2       0.00128174       0.07238463       0.15617634
Pt       2.80721282       6.48298342      24.58417366        2      -0.00385550      -0.00273355      -0.02677104
Pt       5.61442796       6.48298327      24.58417384        2       0.00719962      -0.14694299       0.15632601
Pt       8.42164224       6.48298339      24.58417376        2      -0.00200888      -0.13966677       0.14864407
Pt      -0.00282675      -0.00033037      26.90950476        1       0.01073139      -0.00302234      -0.01208697
Pt       2.80671841       0.06483535      26.89661808        1       0.00065334      -0.02929258      -0.01131603
Pt       5.61701277      -0.00042257      26.91116677        1      -0.01075850      -0.00563376      -0.01049851
Pt       1.40716959       2.44222209      26.91108509        1      -0.00552050      -0.00195287      -0.00779379
Pt       4.20832555       2.44183797      26.91155479        1       0.00387786      -0.00126782      -0.00724211
Pt       7.01964094       2.37910687      26.89128013        1      -0.00255515       0.01082754       0.00991369
Pt       2.80753072       4.86604420      26.90549524        1       0.00034941      -0.00410811       0.00479229
Pt       5.60488069       4.85836253      27.06353174        1       0.01846680      -0.01094062      -0.00673429
Pt       8.43208735       4.86046684      27.06454849        1      -0.01607281      -0.01659119      -0.00662934
O        7.01870874       4.89057639      29.70043957        0      -0.00104198       0.01934205      -0.00925742
C        7.01790014       4.89237605      28.51217557        0       0.00154105      -0.00680168       0.00579371
