38
Lattice="8.421641763931781 0.0 0.0 4.2108208819658905 7.293355709136913 0.0 0.0 0.0 46.87624170604845" Properties=species:S:1:pos:R:3:tags:I:1:forces:R:3 charge=0 spin=0 energy=-202.87962150216808 free_energy=-202.87962150216808 stress="0.010213050059974194 1.5709905710536987e-05 6.503004442492966e-06 1.5709905710536987e-05 0.00960248988121748 -1.2824785699194763e-05 6.503004442492966e-06 -1.2824785699194763e-05 -0.00035309651866555214" pbc="T T T"
Pt      -0.00000000       0.00000021      19.95723433        4       0.00337569       0.00060838       0.01800941
Pt       2.80721396      -0.00000008      19.95723446        4      -0.00033605       0.00044809       0.02182768
Pt       5.61442779      -0.00000016      19.95723449        4      -0.00084276      -0.00158481       0.01997526
Pt       1.40360720       2.43111835      19.95723435        4      -0.02004576      -0.00046464      -0.00637530
Pt       4.21082080       2.43111834      19.95723443        4       0.01958055      -0.00156340      -0.00392770
Pt       7.01803483       2.43111844      19.95723431        4      -0.00085293       0.00454523       0.00694758
Pt       2.80721405       4.86223724      19.95723403        4      -0.00082772      -0.00870161       0.02541937
Pt       5.61442805       4.86223734      19.95723421        4       0.00241904      -0.00140546       0.01530475
Pt       8.42164144       4.86223725      19.95723437        4      -0.00038645      -0.00420652       0.01308485
Pt       1.40360728       0.81037258      22.29206792        3       0.01046244       0.05572870      -0.11289337
Pt       4.21082126       0.81037248      22.29206794        3      -0.01127743       0.05246889      -0.11196405
Pt       7.01803474       0.81037256      22.29206786        3      -0.00151516       0.00828913      -0.06872234
Pt       2.80721448       3.24149124      22.29206779        3       0.00175497      -0.08057694      -0.21869865
Pt       5.61442762       3.24149125      22.29206790        3      -0.03297330      -0.01690606      -0.08342024
Pt       8.42164155       3.24149130      22.29206809        3       0.03146871      -0.01591198      -0.08149236
Pt       4.21082091       5.67260997      22.29206801        3       0.00199466      -0.01268128      -0.01867277
Pt       7.01803488       5.67261037      22.29206781        3       0.00138728       0.00826209      -0.01013997
Pt       9.82524819       5.67261065      22.29206808        3       0.00229904      -0.02305909      -0.02016756
Pt      -0.00000056       1.62074567      24.58417371        2       0.03287791       0.00820338      -0.07128146
Pt       2.80721444       1.62074547      24.58417389        2      -0.00008046       0.04691260      -0.16422841
Pt       5.61442780       1.62074536      24.58417372        2      -0.03254577       0.00474870      -0.06288973
Pt       1.40360637       4.05186441      24.58417386        2      -0.17240188       0.12592204       0.26462144
Pt       4.21082088       4.05186402      24.58417378        2       0.16417697       0.11732256       0.26636565
Pt       7.01803505       4.05186404      24.58417403        2       0.00128196       0.07238443       0.15617652
Pt       2.80721282       6.48298342      24.58417366        2      -0.00385518      -0.00273387      -0.02677174
Pt       5.61442796       6.48298327      24.58417384        2       0.00719924      -0.14694291       0.15632479
Pt       8.42164224       6.48298339      24.58417376        2      -0.00200839      -0.13966642       0.14864342
Pt      -0.00282682      -0.00033059      26.90950484        1       0.01073244      -0.00301895      -0.01208718
Pt       2.80671832       0.06483518      26.89661839        1       0.00065449      -0.02929078      -0.01131507
Pt       5.61701298      -0.00042263      26.91116693        1      -0.01076224      -0.00563170      -0.01049675
Pt       1.40716964       2.44222226      26.91108546        1      -0.00551926      -0.00195710      -0.00779347
Pt       4.20832548       2.44183807      26.91155482        1       0.00387772      -0.00126923      -0.00724224
Pt       7.01964095       2.37910707      26.89128000        1      -0.00255378       0.01082792       0.00991326
Pt       2.80753073       4.86604413      26.90549544        1       0.00035094      -0.00410925       0.00479284
Pt       5.60488019       4.85836259      27.06353150        1       0.01846590      -0.01094131      -0.00673783
Pt       8.43208806       4.86046684      27.06454773        1      -0.01607525      -0.01659102      -0.00663108
O        7.01870860       4.89057639      29.70043946        0      -0.00104285       0.01934294      -0.00941556
C        7.01789987       4.89237607      28.51217438        0       0.00154301      -0.00680080       0.00595783
