38
Lattice="8.421641763931781 0.0 0.0 4.2108208819658905 7.293355709136913 0.0 0.0 0.0 46.87624170604845" Properties=species:S:1:pos:R:3:tags:I:1:forces:R:3 charge=0 spin=0 energy=-202.8796224558424 free_energy=-202.8796224558424 stress="0.010213054716587067 1.571157918078825e-05 6.5020676629501395e-06 1.571157918078825e-05 0.009602505713701248 -1.2830013474740554e-05 6.5020676629501395e-06 -1.2830013474740554e-05 -0.0003530826943460852" pbc="T T T"
Pt      -0.00000000       0.00000021      19.95723433        4       0.00337566       0.00060846       0.01800949
Pt       2.80721396      -0.00000008      19.95723446        4      -0.00033612       0.00044811       0.02182763
Pt       5.61442779      -0.00000016      19.95723449        4      -0.00084274      -0.00158471       0.01997524
Pt       1.40360720       2.43111835      19.95723435        4      -0.02004579      -0.00046477      -0.00637517
Pt       4.21082080       2.43111834      19.95723443        4       0.01958055      -0.00156349      -0.00392751
Pt       7.01803483       2.43111844      19.95723431        4      -0.00085297       0.00454521       0.00694771
Pt       2.80721405       4.86223724      19.95723403        4      -0.00082771      -0.00870149       0.02541933
Pt       5.61442805       4.86223734      19.95723421        4       0.00241903      -0.00140554       0.01530473
Pt       8.42164144       4.86223725      19.95723437        4      -0.00038650      -0.00420642       0.01308478
Pt       1.40360728       0.81037258      22.29206792        3       0.01046256       0.05572876      -0.11289341
Pt       4.21082126       0.81037248      22.29206794        3      -0.01127715       0.05246892      -0.11196407
Pt       7.01803474       0.81037256      22.29206786        3      -0.00151523       0.00828908      -0.06872195
Pt       2.80721448       3.24149124      22.29206779        3       0.00175491      -0.08057717      -0.21869865
Pt       5.61442762       3.24149125      22.29206790        3      -0.03297326      -0.01690604      -0.08342026
Pt       8.42164155       3.24149130      22.29206809        3       0.03146871      -0.01591210      -0.08149232
Pt       4.21082091       5.67260997      22.29206801        3       0.00199463      -0.01268126      -0.01867249
Pt       7.01803488       5.67261037      22.29206781        3       0.00138757       0.00826182      -0.01014035
Pt       9.82524819       5.67261065      22.29206808        3       0.00229888      -0.02305925      -0.02016821
Pt      -0.00000056       1.62074567      24.58417371        2       0.03287625       0.00820272      -0.07127680
Pt       2.80721444       1.62074547      24.58417389        2      -0.00008094       0.04691238      -0.16422786
Pt       5.61442780       1.62074536      24.58417372        2      -0.03254361       0.00474943      -0.06288636
Pt       1.40360637       4.05186441      24.58417386        2      -0.17240183       0.12592188       0.26462162
Pt       4.21082088       4.05186402      24.58417378        2       0.16417688       0.11732275       0.26636556
Pt       7.01803505       4.05186404      24.58417403        2       0.00128182       0.07238322       0.15617830
Pt       2.80721282       6.48298342      24.58417366        2      -0.00385396      -0.00273287      -0.02676954
Pt       5.61442796       6.48298327      24.58417384        2       0.00719852      -0.14694184       0.15632722
Pt       8.42164224       6.48298339      24.58417376        2      -0.00200861      -0.13966605       0.14864466
Pt      -0.00282665      -0.00033060      26.90950499        1       0.01073206      -0.00301782      -0.01209303
Pt       2.80671828       0.06483536      26.89661828        1       0.00065388      -0.02929267      -0.01131599
Pt       5.61701289      -0.00042280      26.91116674        1      -0.01076185      -0.00563225      -0.01049755
Pt       1.40716942       2.44222231      26.91108530        1      -0.00551927      -0.00195963      -0.00779298
Pt       4.20832560       2.44183808      26.91155449        1       0.00387736      -0.00127221      -0.00724105
Pt       7.01964087       2.37910689      26.89128043        1      -0.00255448       0.01082556       0.00990548
Pt       2.80753075       4.86604427      26.90549504        1       0.00035119      -0.00410849       0.00479286
Pt       5.60488042       4.85836262      27.06353224        1       0.01846573      -0.01094084      -0.00673829
Pt       8.43208772       4.86046666      27.06454867        1      -0.01607503      -0.01658811      -0.00663172
O        7.01870870       4.89057661      29.70043975        0      -0.00104172       0.01934712      -0.00942408
C        7.01790007       4.89237585      28.51217424        0       0.00154289      -0.00680036       0.00596529
