38
Lattice="8.421641763931781 0.0 0.0 4.2108208819658905 7.293355709136913 0.0 0.0 0.0 46.87624170604845" Properties=species:S:1:pos:R:3:tags:I:1:forces:R:3 charge=0 spin=0 energy=-202.87924003244152 free_energy=-202.87924003244152 stress="0.010156088508665562 1.7430853404221125e-05 5.889996828045696e-06 1.7430853404221125e-05 0.009572046808898449 -2.6050614906125702e-05 5.889996828045696e-06 -2.6050614906125702e-05 -0.00042389475856907666" pbc="T T T"
Pt      -0.00000000       0.00000021      19.95723433        4       0.00318300       0.00098185       0.01795875
Pt       2.80721396      -0.00000008      19.95723446        4      -0.00048373       0.00115969       0.02175624
Pt       5.61442779      -0.00000016      19.95723449        4      -0.00067694      -0.00128433       0.01998710
Pt       1.40360720       2.43111835      19.95723435        4      -0.02058942      -0.00031075      -0.00685503
Pt       4.21082080       2.43111834      19.95723443        4       0.01992344      -0.00145887      -0.00421038
Pt       7.01803483       2.43111844      19.95723431        4      -0.00088484       0.00499537       0.00680723
Pt       2.80721405       4.86223724      19.95723403        4      -0.00085304      -0.00829371       0.02535396
Pt       5.61442805       4.86223734      19.95723421        4       0.00258663      -0.00079763       0.01520254
Pt       8.42164144       4.86223725      19.95723437        4      -0.00060721      -0.00357877       0.01293423
Pt       1.40360728       0.81037258      22.29206792        3       0.01007956       0.05721150      -0.11281676
Pt       4.21082126       0.81037248      22.29206794        3      -0.01075184       0.05394839      -0.11183317
Pt       7.01803474       0.81037256      22.29206786        3      -0.00140128       0.00987024      -0.06903592
Pt       2.80721448       3.24149124      22.29206779        3       0.00199988      -0.07990157      -0.21907981
Pt       5.61442762       3.24149125      22.29206790        3      -0.03320531      -0.01517616      -0.08299002
Pt       8.42164155       3.24149130      22.29206809        3       0.03190607      -0.01426184      -0.08109208
Pt       4.21082091       5.67260997      22.29206801        3       0.00190544      -0.01110274      -0.01871715
Pt       7.01803488       5.67261037      22.29206781        3       0.00146777       0.01059008      -0.01114059
Pt       9.82524819       5.67261065      22.29206808        3       0.00229005      -0.02135290      -0.02010713
Pt      -0.00000056       1.62074567      24.58417371        2       0.03719412      -0.00009195      -0.07006535
Pt       2.80721444       1.62074547      24.58417389        2      -0.00012145       0.05043063      -0.16166560
Pt       5.61442780       1.62074536      24.58417372        2      -0.03655073      -0.00399498      -0.06170374
Pt       1.40360637       4.05186441      24.58417386        2      -0.17388776       0.11784721       0.25721842
Pt       4.21082088       4.05186402      24.58417378        2       0.16510829       0.10906617       0.25942957
Pt       7.01803505       4.05186404      24.58417403        2       0.00151394       0.06235466       0.14011651
Pt       2.80721282       6.48298342      24.58417366        2      -0.00437368      -0.00210923      -0.02936672
Pt       5.61442796       6.48298327      24.58417384        2       0.00283953      -0.15174589       0.13915049
Pt       8.42164224       6.48298339      24.58417376        2       0.00255338      -0.14513300       0.13337913
Pt       0.00044523      -0.01106094      26.90958520        1      -0.00629756       0.01842525      -0.01392751
Pt       2.80636476       0.05695260      26.88976288        1       0.00258813      -0.00647731       0.01183853
Pt       5.61315866      -0.01067813      26.91157037        1       0.00654393       0.01384512      -0.01365045
Pt       1.40632086       2.43968357      26.91338858        1       0.00521656      -0.02904275      -0.01727502
Pt       4.20946999       2.43925583      26.91369464        1      -0.00740688      -0.02751200      -0.01660528
Pt       7.01977418       2.36834841      26.88911536        1      -0.00375485      -0.00098386       0.01748919
Pt       2.80722902       4.86090752      26.90172127        1       0.00187914      -0.00716769       0.01915902
Pt       5.60958541       4.84784488      27.05750027        1      -0.01688042       0.00952887       0.00824055
Pt       8.42785984       4.84889255      27.05904815        1       0.01689788       0.00913447       0.00726413
O        7.01848336       4.87229881      29.69754292        0      -0.00090118       0.03891565       0.01394173
C        7.01780783       4.88474120      28.50967907        0       0.00195129      -0.03652708      -0.00508981
