38
Lattice="8.421641763931781 0.0 0.0 4.2108208819658905 7.293355709136913 0.0 0.0 0.0 46.87624170604845" Properties=species:S:1:pos:R:3:tags:I:1:forces:R:3 charge=0 spin=0 energy=-202.87981223703136 free_energy=-202.87981223703136 stress="0.010148727335035801 1.7170081264339387e-05 6.280227353272494e-06 1.7170081264339387e-05 0.009566976688802242 -2.5184581318171695e-05 6.280227353272494e-06 -2.5184581318171695e-05 -0.000437895767390728" pbc="T T T"
Pt      -0.00000000       0.00000021      19.95723433        4       0.00333616       0.00113067       0.01792317
Pt       2.80721396      -0.00000008      19.95723446        4      -0.00030749       0.00108944       0.02187180
Pt       5.61442779      -0.00000016      19.95723449        4      -0.00075129      -0.00098912       0.01984066
Pt       1.40360720       2.43111835      19.95723435        4      -0.02037537       0.00014462      -0.00679421
Pt       4.21082080       2.43111834      19.95723443        4       0.01983031      -0.00100457      -0.00436171
Pt       7.01803483       2.43111844      19.95723431        4      -0.00091663       0.00520915       0.00690643
Pt       2.80721405       4.86223724      19.95723403        4      -0.00093900      -0.00810160       0.02546208
Pt       5.61442805       4.86223734      19.95723421        4       0.00247837      -0.00092465       0.01515123
Pt       8.42164144       4.86223725      19.95723437        4      -0.00056338      -0.00373785       0.01293688
Pt       1.40360728       0.81037258      22.29206792        3       0.01076190       0.05830572      -0.11344966
Pt       4.21082126       0.81037248      22.29206794        3      -0.01142791       0.05486900      -0.11218903
Pt       7.01803474       0.81037256      22.29206786        3      -0.00146197       0.01078772      -0.06872068
Pt       2.80721448       3.24149124      22.29206779        3       0.00208154      -0.08004312      -0.21953239
Pt       5.61442762       3.24149125      22.29206790        3      -0.03295793      -0.01526900      -0.08304001
Pt       8.42164155       3.24149130      22.29206809        3       0.03181545      -0.01441142      -0.08087357
Pt       4.21082091       5.67260997      22.29206801        3       0.00262519      -0.01052007      -0.01683647
Pt       7.01803488       5.67261037      22.29206781        3       0.00171040       0.01041053      -0.01011433
Pt       9.82524819       5.67261065      22.29206808        3       0.00211678      -0.02076168      -0.01830843
Pt      -0.00000056       1.62074567      24.58417371        2       0.03052898       0.00441932      -0.08890156
Pt       2.80721444       1.62074547      24.58417389        2       0.00005330       0.04518029      -0.18823729
Pt       5.61442780       1.62074536      24.58417372        2      -0.03170907      -0.00045476      -0.08025089
Pt       1.40360637       4.05186441      24.58417386        2      -0.17098995       0.12562375       0.26350546
Pt       4.21082088       4.05186402      24.58417378        2       0.16243793       0.11687580       0.26495394
Pt       7.01803505       4.05186404      24.58417403        2       0.00113599       0.06694686       0.14908873
Pt       2.80721282       6.48298342      24.58417366        2      -0.00462761      -0.01697181      -0.03456004
Pt       5.61442796       6.48298327      24.58417384        2       0.00272427      -0.16285071       0.13629591
Pt       8.42164224       6.48298339      24.58417376        2       0.00223791      -0.15619908       0.12954871
Pt      -0.00187980      -0.00789989      26.90360065        1       0.00367485      -0.01107950       0.01047597
Pt       2.80646697       0.05262692      26.88766466        1       0.00029293      -0.01517820       0.01922470
Pt       5.61449393      -0.00896439      26.90578985        1      -0.00118260      -0.01043353       0.00937531
Pt       1.40717221       2.43351132      26.90605658        1      -0.00391987       0.00390308       0.01042849
Pt       4.20740800       2.43352659      26.90671624        1       0.00316116       0.00424799       0.01037221
Pt       7.01824459       2.36973476      26.88950706        1       0.00038591       0.01239543       0.02188554
Pt       2.80755874       4.85864230      26.90889282        1      -0.00005266      -0.00396898      -0.00853903
Pt       5.60720049       4.84807535      27.06280146        1       0.00192488      -0.00360716       0.00020911
Pt       8.43030825       4.84836835      27.06405412        1      -0.00294583      -0.00353518      -0.00059962
O        7.01840668       4.87252450      29.70210279        0       0.00006261       0.01247214      -0.01758545
C        7.01833211       4.87333869      28.51385161        0      -0.00024815       0.00603030       0.00743785
