38
Lattice="8.421641763931781 0.0 0.0 4.2108208819658905 7.293355709136913 0.0 0.0 0.0 46.87624170604845" Properties=species:S:1:pos:R:3:tags:I:1:forces:R:3 charge=0 spin=0 energy=-202.87920856118907 free_energy=-202.87920856118907 stress="0.01022193394601345 1.3780927474726923e-05 9.20615730137797e-06 1.3780927474726923e-05 0.009590739384293556 6.721736099279951e-06 9.20615730137797e-06 6.721736099279951e-06 -0.00035278586437925696" pbc="T T T"
Pt      -0.00000000       0.00000021      19.95723433        4       0.00341846       0.00007058       0.01776412
Pt       2.80721396      -0.00000008      19.95723446        4      -0.00020380       0.00011545       0.02179214
Pt       5.61442779      -0.00000016      19.95723449        4      -0.00061849      -0.00221793       0.01975556
Pt       1.40360720       2.43111835      19.95723435        4      -0.01978880      -0.00100841      -0.00631275
Pt       4.21082080       2.43111834      19.95723443        4       0.01951207      -0.00209917      -0.00384316
Pt       7.01803483       2.43111844      19.95723431        4      -0.00069775       0.00418304       0.00725303
Pt       2.80721405       4.86223724      19.95723403        4      -0.00072291      -0.00919380       0.02556202
Pt       5.61442805       4.86223734      19.95723421        4       0.00252083      -0.00162407       0.01511777
Pt       8.42164144       4.86223725      19.95723437        4      -0.00029278      -0.00436554       0.01302327
Pt       1.40360728       0.81037258      22.29206792        3       0.00995491       0.05453219      -0.11212520
Pt       4.21082126       0.81037248      22.29206794        3      -0.01053811       0.05164992      -0.11149505
Pt       7.01803474       0.81037256      22.29206786        3      -0.00133322       0.00670630      -0.06886560
Pt       2.80721448       3.24149124      22.29206779        3       0.00175234      -0.08153488      -0.21879537
Pt       5.61442762       3.24149125      22.29206790        3      -0.03276450      -0.01836644      -0.08528665
Pt       8.42164155       3.24149130      22.29206809        3       0.03126372      -0.01759030      -0.08299747
Pt       4.21082091       5.67260997      22.29206801        3       0.00168293      -0.01475932      -0.01904586
Pt       7.01803488       5.67261037      22.29206781        3       0.00149793       0.00655847      -0.00831917
Pt       9.82524819       5.67261065      22.29206808        3       0.00303692      -0.02509639      -0.02036041
Pt      -0.00000056       1.62074567      24.58417371        2       0.03286581       0.01248637      -0.07672197
Pt       2.80721444       1.62074547      24.58417389        2      -0.00089930       0.04936322      -0.16025101
Pt       5.61442780       1.62074536      24.58417372        2      -0.03378948       0.00861164      -0.06889764
Pt       1.40360637       4.05186441      24.58417386        2      -0.16924524       0.13591278       0.27081403
Pt       4.21082088       4.05186402      24.58417378        2       0.15876034       0.12670232       0.27105728
Pt       7.01803505       4.05186404      24.58417403        2       0.00134005       0.07741005       0.16148753
Pt       2.80721282       6.48298342      24.58417366        2      -0.00485532      -0.00312979      -0.02959734
Pt       5.61442796       6.48298327      24.58417384        2       0.01397761      -0.13930564       0.15459156
Pt       8.42164224       6.48298339      24.58417376        2      -0.00942411      -0.13337156       0.14779797
Pt      -0.00201154       0.00340878      26.90697147        1       0.00293965       0.01116097      -0.00210593
Pt       2.80627878       0.07491947      26.90186193        1      -0.00044523      -0.03727138      -0.02578692
Pt       5.61439172       0.00336470      26.90872758        1      -0.00149199       0.00712574      -0.00048586
Pt       1.40453063       2.45024052      26.90868002        1       0.00304444      -0.00129466      -0.00051741
Pt       4.20958600       2.44994713      26.90931297        1      -0.00463978      -0.00108910      -0.00018855
Pt       7.01884682       2.38178276      26.89056012        1      -0.00165120       0.03283078       0.01071530
Pt       2.80685141       4.87578273      26.91243104        1      -0.00128156      -0.02671064      -0.01708456
Pt       5.60374967       4.86792828      27.06267901        1       0.02712587      -0.03385991      -0.00201098
Pt       8.43089003       4.86968687      27.06507324        1      -0.01413479      -0.03869027      -0.01250101
O        7.01768572       4.94167908      29.69932232        0      -0.00211786       0.00644482      -0.00924533
C        7.01732771       4.92515652      28.51111228        0      -0.00375783       0.00071443       0.00610952
