38
Lattice="8.421641763931781 0.0 0.0 4.2108208819658905 7.293355709136913 0.0 0.0 0.0 46.87624170604845" Properties=species:S:1:pos:R:3:tags:I:1:forces:R:3 charge=0 spin=0 energy=-202.87981700540294 free_energy=-202.87981700540294 stress="0.010148731991648674 1.7166787074529566e-05 6.276234671531711e-06 1.7166787074529566e-05 0.009566983208060265 -2.5184283003909513e-05 6.276234671531711e-06 -2.5184283003909513e-05 -0.0004378766752779484" pbc="T T T"
Pt      -0.00000000       0.00000021      19.95723433        4       0.00333630       0.00113077       0.01792321
Pt       2.80721396      -0.00000008      19.95723446        4      -0.00030727       0.00108939       0.02187186
Pt       5.61442779      -0.00000016      19.95723449        4      -0.00075124      -0.00098924       0.01984083
Pt       1.40360720       2.43111835      19.95723435        4      -0.02037538       0.00014483      -0.00679434
Pt       4.21082080       2.43111834      19.95723443        4       0.01983028      -0.00100454      -0.00436184
Pt       7.01803483       2.43111844      19.95723431        4      -0.00091657       0.00520921       0.00690658
Pt       2.80721405       4.86223724      19.95723403        4      -0.00093904      -0.00810149       0.02546195
Pt       5.61442805       4.86223734      19.95723421        4       0.00247841      -0.00092459       0.01515125
Pt       8.42164144       4.86223725      19.95723437        4      -0.00056323      -0.00373789       0.01293686
Pt       1.40360728       0.81037258      22.29206792        3       0.01076133       0.05830556      -0.11345030
Pt       4.21082126       0.81037248      22.29206794        3      -0.01142822       0.05486883      -0.11218864
Pt       7.01803474       0.81037256      22.29206786        3      -0.00146236       0.01078741      -0.06872094
Pt       2.80721448       3.24149124      22.29206779        3       0.00208116      -0.08004311      -0.21953233
Pt       5.61442762       3.24149125      22.29206790        3      -0.03295803      -0.01526917      -0.08304024
Pt       8.42164155       3.24149130      22.29206809        3       0.03181494      -0.01441121      -0.08087230
Pt       4.21082091       5.67260997      22.29206801        3       0.00262520      -0.01052015      -0.01683627
Pt       7.01803488       5.67261037      22.29206781        3       0.00171036       0.01041029      -0.01011392
Pt       9.82524819       5.67261065      22.29206808        3       0.00211636      -0.02076194      -0.01830829
Pt      -0.00000056       1.62074567      24.58417371        2       0.03052888       0.00441978      -0.08890089
Pt       2.80721444       1.62074547      24.58417389        2       0.00005385       0.04518072      -0.18823475
Pt       5.61442780       1.62074536      24.58417372        2      -0.03170900      -0.00045487      -0.08025015
Pt       1.40360637       4.05186441      24.58417386        2      -0.17099009       0.12562390       0.26350552
Pt       4.21082088       4.05186402      24.58417378        2       0.16243796       0.11687649       0.26495519
Pt       7.01803505       4.05186404      24.58417403        2       0.00113635       0.06694708       0.14908737
Pt       2.80721282       6.48298342      24.58417366        2      -0.00462716      -0.01697075      -0.03456113
Pt       5.61442796       6.48298327      24.58417384        2       0.00272437      -0.16285059       0.13629636
Pt       8.42164224       6.48298339      24.58417376        2       0.00223816      -0.15619920       0.12954888
Pt      -0.00187937      -0.00789957      26.90360026        1       0.00367218      -0.01107768       0.01047677
Pt       2.80646701       0.05262641      26.88766449        1       0.00029307      -0.01517324       0.01922405
Pt       5.61449336      -0.00896420      26.90578941        1      -0.00118114      -0.01043067       0.00937523
Pt       1.40717162       2.43351148      26.90605645        1      -0.00391569       0.00390162       0.01042817
Pt       4.20740844       2.43352697      26.90671596        1       0.00315761       0.00424607       0.01037169
Pt       7.01824480       2.36973560      26.88950655        1       0.00038601       0.01239091       0.02188516
Pt       2.80755862       4.85864245      26.90889322        1      -0.00004981      -0.00397107      -0.00853914
Pt       5.60720119       4.84807545      27.06280205        1       0.00192827      -0.00360608       0.00021687
Pt       8.43030792       4.84836848      27.06405442        1      -0.00295200      -0.00353639      -0.00058898
O        7.01840657       4.87252370      29.70210449        0       0.00006427       0.01247052      -0.01760196
C        7.01833206       4.87333830      28.51385321        0      -0.00024879       0.00603065       0.00743268
