38
Lattice="8.421641763931781 0.0 0.0 4.2108208819658905 7.293355709136913 0.0 0.0 0.0 46.87624170604845" Properties=species:S:1:pos:R:3:tags:I:1:forces:R:3 charge=0 spin=0 energy=-202.87981223703136 free_energy=-202.87981223703136 stress="0.01014872919768095 1.7167227269965224e-05 6.279861736402381e-06 1.7167227269965224e-05 0.009566973894834518 -2.5180750526487827e-05 6.279861736402381e-06 -2.5180750526487827e-05 -0.000437973445514217" pbc="T T T"
Pt      -0.00000000       0.00000021      19.95723433        4       0.00333636       0.00113084       0.01792325
Pt       2.80721396      -0.00000008      19.95723446        4      -0.00030729       0.00108947       0.02187193
Pt       5.61442779      -0.00000016      19.95723449        4      -0.00075133      -0.00098898       0.01984068
Pt       1.40360720       2.43111835      19.95723435        4      -0.02037539       0.00014471      -0.00679432
Pt       4.21082080       2.43111834      19.95723443        4       0.01983033      -0.00100466      -0.00436214
Pt       7.01803483       2.43111844      19.95723431        4      -0.00091661       0.00520917       0.00690651
Pt       2.80721405       4.86223724      19.95723403        4      -0.00093912      -0.00810162       0.02546200
Pt       5.61442805       4.86223734      19.95723421        4       0.00247822      -0.00092455       0.01515132
Pt       8.42164144       4.86223725      19.95723437        4      -0.00056335      -0.00373805       0.01293690
Pt       1.40360728       0.81037258      22.29206792        3       0.01076143       0.05830562      -0.11345018
Pt       4.21082126       0.81037248      22.29206794        3      -0.01142813       0.05486891      -0.11218879
Pt       7.01803474       0.81037256      22.29206786        3      -0.00146206       0.01078751      -0.06872043
Pt       2.80721448       3.24149124      22.29206779        3       0.00208125      -0.08004297      -0.21953249
Pt       5.61442762       3.24149125      22.29206790        3      -0.03295755      -0.01526905      -0.08304043
Pt       8.42164155       3.24149130      22.29206809        3       0.03181490      -0.01441096      -0.08087182
Pt       4.21082091       5.67260997      22.29206801        3       0.00262497      -0.01051987      -0.01683638
Pt       7.01803488       5.67261037      22.29206781        3       0.00171041       0.01041090      -0.01011465
Pt       9.82524819       5.67261065      22.29206808        3       0.00211685      -0.02076167      -0.01830897
Pt      -0.00000056       1.62074567      24.58417371        2       0.03052977       0.00442060      -0.08890144
Pt       2.80721444       1.62074547      24.58417389        2       0.00005355       0.04518025      -0.18824108
Pt       5.61442780       1.62074536      24.58417372        2      -0.03171038      -0.00045420      -0.08025207
Pt       1.40360637       4.05186441      24.58417386        2      -0.17099202       0.12562242       0.26350391
Pt       4.21082088       4.05186402      24.58417378        2       0.16243899       0.11687478       0.26495254
Pt       7.01803505       4.05186404      24.58417403        2       0.00113646       0.06694625       0.14908962
Pt       2.80721282       6.48298342      24.58417366        2      -0.00462775      -0.01697140      -0.03456403
Pt       5.61442796       6.48298327      24.58417384        2       0.00272417      -0.16285038       0.13629737
Pt       8.42164224       6.48298339      24.58417376        2       0.00223773      -0.15619943       0.12954941
Pt      -0.00188082      -0.00789932      26.90360117        1       0.00368191      -0.01108313       0.01047684
Pt       2.80646687       0.05262770      26.88766548        1       0.00029236      -0.01518611       0.01922559
Pt       5.61449482      -0.00896412      26.90578985        1      -0.00118897      -0.01043525       0.00937631
Pt       1.40717288       2.43351068      26.90605741        1      -0.00392658       0.00390604       0.01042962
Pt       4.20740717       2.43352578      26.90671625        1       0.00316786       0.00425337       0.01037304
Pt       7.01824442       2.36973361      26.88950766        1       0.00038816       0.01240370       0.02188526
Pt       2.80755878       4.85864218      26.90889208        1      -0.00005169      -0.00396977      -0.00853147
Pt       5.60720046       4.84807515      27.06280101        1       0.00192268      -0.00360653       0.00020198
Pt       8.43030845       4.84836818      27.06405355        1      -0.00294485      -0.00353716      -0.00060537
O        7.01840710       4.87252509      29.70209980        0       0.00006231       0.01246887      -0.01742563
C        7.01833222       4.87333890      28.51385164        0      -0.00024790       0.00603216       0.00728734
