38
Lattice="8.421641763931781 0.0 0.0 4.2108208819658905 7.293355709136913 0.0 0.0 0.0 46.87624170604845" Properties=species:S:1:pos:R:3:tags:I:1:forces:R:3 charge=0 spin=0 energy=-202.87921142221202 free_energy=-202.87921142221202 stress="0.010221919044852257 1.3777510503132362e-05 9.206672984873876e-06 1.3777510503132362e-05 0.00959073007106781 6.725828370690579e-06 9.206672984873876e-06 6.725828370690579e-06 -0.0003526679356582463" pbc="T T T"
Pt      -0.00000000       0.00000021      19.95723433        4       0.00341843       0.00007064       0.01776407
Pt       2.80721396      -0.00000008      19.95723446        4      -0.00020379       0.00011547       0.02179214
Pt       5.61442779      -0.00000016      19.95723449        4      -0.00061844      -0.00221809       0.01975523
Pt       1.40360720       2.43111835      19.95723435        4      -0.01978884      -0.00100846      -0.00631277
Pt       4.21082080       2.43111834      19.95723443        4       0.01951210      -0.00209937      -0.00384308
Pt       7.01803483       2.43111844      19.95723431        4      -0.00069781       0.00418309       0.00725308
Pt       2.80721405       4.86223724      19.95723403        4      -0.00072302      -0.00919390       0.02556182
Pt       5.61442805       4.86223734      19.95723421        4       0.00252086      -0.00162393       0.01511779
Pt       8.42164144       4.86223725      19.95723437        4      -0.00029277      -0.00436577       0.01302327
Pt       1.40360728       0.81037258      22.29206792        3       0.00995507       0.05453231      -0.11212556
Pt       4.21082126       0.81037248      22.29206794        3      -0.01053798       0.05164967      -0.11149490
Pt       7.01803474       0.81037256      22.29206786        3      -0.00133298       0.00670647      -0.06886564
Pt       2.80721448       3.24149124      22.29206779        3       0.00175261      -0.08153512      -0.21879548
Pt       5.61442762       3.24149125      22.29206790        3      -0.03276421      -0.01836662      -0.08528637
Pt       8.42164155       3.24149130      22.29206809        3       0.03126365      -0.01759009      -0.08299688
Pt       4.21082091       5.67260997      22.29206801        3       0.00168319      -0.01475914      -0.01904578
Pt       7.01803488       5.67261037      22.29206781        3       0.00149791       0.00655847      -0.00831894
Pt       9.82524819       5.67261065      22.29206808        3       0.00303670      -0.02509624      -0.02036062
Pt      -0.00000056       1.62074567      24.58417371        2       0.03286564       0.01248623      -0.07672125
Pt       2.80721444       1.62074547      24.58417389        2      -0.00089943       0.04936359      -0.16025229
Pt       5.61442780       1.62074536      24.58417372        2      -0.03378941       0.00861172      -0.06889798
Pt       1.40360637       4.05186441      24.58417386        2      -0.16924627       0.13591234       0.27081034
Pt       4.21082088       4.05186402      24.58417378        2       0.15876177       0.12670185       0.27105427
Pt       7.01803505       4.05186404      24.58417403        2       0.00134042       0.07741006       0.16148689
Pt       2.80721282       6.48298342      24.58417366        2      -0.00485532      -0.00312846      -0.02959983
Pt       5.61442796       6.48298327      24.58417384        2       0.01397760      -0.13930579       0.15459175
Pt       8.42164224       6.48298339      24.58417376        2      -0.00942446      -0.13337173       0.14779773
Pt      -0.00201167       0.00340864      26.90697172        1       0.00293941       0.01116389      -0.00210553
Pt       2.80627862       0.07492025      26.90186205        1      -0.00044760      -0.03727577      -0.02578313
Pt       5.61439200       0.00336417      26.90872750        1      -0.00149160       0.00712900      -0.00048662
Pt       1.40453068       2.45024112      26.90867989        1       0.00304305      -0.00129894      -0.00051681
Pt       4.20958588       2.44994744      26.90931298        1      -0.00463647      -0.00109081      -0.00018838
Pt       7.01884685       2.38178274      26.89056055        1      -0.00165138       0.03282832       0.01071630
Pt       2.80685134       4.87578265      26.91243059        1      -0.00128064      -0.02670794      -0.01707983
Pt       5.60374985       4.86792815      27.06267970        1       0.02712232      -0.03385761      -0.00201185
Pt       8.43089030       4.86968676      27.06507342        1      -0.01413389      -0.03868728      -0.01250080
O        7.01768587       4.94167876      29.69932447        0      -0.00211861       0.00643957      -0.00955699
C        7.01732744       4.92515678      28.51111066        0      -0.00375584       0.00071813       0.00642267
