38
Lattice="8.421641763931781 0.0 0.0 4.2108208819658905 7.293355709136913 0.0 0.0 0.0 46.87624170604845" Properties=species:S:1:pos:R:3:tags:I:1:forces:R:3 charge=0 spin=0 energy=-202.8792104685377 free_energy=-202.8792104685377 stress="0.010221919976174831 1.377722765028011e-05 9.204664820572361e-06 1.377722765028011e-05 0.009590755216777325 6.72676287649665e-06 9.204664820572361e-06 6.72676287649665e-06 -0.00035267166094854474" pbc="T T T"
Pt      -0.00000000       0.00000021      19.95723433        4       0.00341850       0.00007066       0.01776424
Pt       2.80721396      -0.00000008      19.95723446        4      -0.00020366       0.00011556       0.02179197
Pt       5.61442779      -0.00000016      19.95723449        4      -0.00061838      -0.00221800       0.01975523
Pt       1.40360720       2.43111835      19.95723435        4      -0.01978876      -0.00100848      -0.00631275
Pt       4.21082080       2.43111834      19.95723443        4       0.01951218      -0.00209930      -0.00384306
Pt       7.01803483       2.43111844      19.95723431        4      -0.00069787       0.00418312       0.00725295
Pt       2.80721405       4.86223724      19.95723403        4      -0.00072302      -0.00919404       0.02556185
Pt       5.61442805       4.86223734      19.95723421        4       0.00252081      -0.00162392       0.01511775
Pt       8.42164144       4.86223725      19.95723437        4      -0.00029283      -0.00436547       0.01302308
Pt       1.40360728       0.81037258      22.29206792        3       0.00995464       0.05453237      -0.11212612
Pt       4.21082126       0.81037248      22.29206794        3      -0.01053819       0.05164990      -0.11149500
Pt       7.01803474       0.81037256      22.29206786        3      -0.00133354       0.00670593      -0.06886610
Pt       2.80721448       3.24149124      22.29206779        3       0.00175246      -0.08153512      -0.21879651
Pt       5.61442762       3.24149125      22.29206790        3      -0.03276445      -0.01836679      -0.08528644
Pt       8.42164155       3.24149130      22.29206809        3       0.03126339      -0.01759036      -0.08299728
Pt       4.21082091       5.67260997      22.29206801        3       0.00168285      -0.01475921      -0.01904561
Pt       7.01803488       5.67261037      22.29206781        3       0.00149783       0.00655856      -0.00831828
Pt       9.82524819       5.67261065      22.29206808        3       0.00303648      -0.02509665      -0.02036051
Pt      -0.00000056       1.62074567      24.58417371        2       0.03286561       0.01248618      -0.07672112
Pt       2.80721444       1.62074547      24.58417389        2      -0.00089955       0.04936174      -0.16024671
Pt       5.61442780       1.62074536      24.58417372        2      -0.03378928       0.00861160      -0.06889667
Pt       1.40360637       4.05186441      24.58417386        2      -0.16924718       0.13591345       0.27081391
Pt       4.21082088       4.05186402      24.58417378        2       0.15876277       0.12670222       0.27105522
Pt       7.01803505       4.05186404      24.58417403        2       0.00134064       0.07741146       0.16148908
Pt       2.80721282       6.48298342      24.58417366        2      -0.00485518      -0.00312817      -0.02959892
Pt       5.61442796       6.48298327      24.58417384        2       0.01397950      -0.13930625       0.15459512
Pt       8.42164224       6.48298339      24.58417376        2      -0.00942552      -0.13337232       0.14780214
Pt      -0.00201122       0.00340842      26.90697138        1       0.00293640       0.01116614      -0.00210477
Pt       2.80627880       0.07492003      26.90186234        1      -0.00044574      -0.03726983      -0.02579230
Pt       5.61439160       0.00336406      26.90872726        1      -0.00149212       0.00712847      -0.00048700
Pt       1.40453026       2.45024136      26.90867977        1       0.00304996      -0.00129922      -0.00051779
Pt       4.20958627       2.44994782      26.90931304        1      -0.00464006      -0.00109453      -0.00018876
Pt       7.01884680       2.38178256      26.89056060        1      -0.00165140       0.03282798       0.01071614
Pt       2.80685147       4.87578280      26.91242898        1      -0.00128554      -0.02670953      -0.01707964
Pt       5.60375079       4.86792807      27.06268052        1       0.02710304      -0.03385831      -0.00203220
Pt       8.43088902       4.86968659      27.06507484        1      -0.01411120      -0.03868736      -0.01252226
O        7.01768574       4.94167925      29.69932408        0      -0.00211802       0.00643395      -0.00955231
C        7.01732753       4.92515602      28.51111116        0      -0.00375587       0.00072348       0.00644952
