38
Lattice="8.421641763931781 0.0 0.0 4.2108208819658905 7.293355709136913 0.0 0.0 0.0 46.87624170604845" Properties=species:S:1:pos:R:3:tags:I:1:forces:R:3 charge=0 spin=0 energy=-202.87924003244152 free_energy=-202.87924003244152 stress="0.010156075470149517 1.74300712387776e-05 5.887974566576304e-06 1.74300712387776e-05 0.009572033770382404 -2.604905421321746e-05 5.887974566576304e-06 -2.604905421321746e-05 -0.0004239299159962684" pbc="T T T"
Pt      -0.00000000       0.00000021      19.95723433        4       0.00318300       0.00098193       0.01795867
Pt       2.80721396      -0.00000008      19.95723446        4      -0.00048370       0.00115957       0.02175615
Pt       5.61442779      -0.00000016      19.95723449        4      -0.00067715      -0.00128430       0.01998703
Pt       1.40360720       2.43111835      19.95723435        4      -0.02058966      -0.00031090      -0.00685518
Pt       4.21082080       2.43111834      19.95723443        4       0.01992355      -0.00145888      -0.00421063
Pt       7.01803483       2.43111844      19.95723431        4      -0.00088491       0.00499535       0.00680698
Pt       2.80721405       4.86223724      19.95723403        4      -0.00085298      -0.00829378       0.02535394
Pt       5.61442805       4.86223734      19.95723421        4       0.00258662      -0.00079766       0.01520259
Pt       8.42164144       4.86223725      19.95723437        4      -0.00060722      -0.00357874       0.01293413
Pt       1.40360728       0.81037258      22.29206792        3       0.01007928       0.05721166      -0.11281701
Pt       4.21082126       0.81037248      22.29206794        3      -0.01075188       0.05394838      -0.11183301
Pt       7.01803474       0.81037256      22.29206786        3      -0.00140128       0.00987020      -0.06903535
Pt       2.80721448       3.24149124      22.29206779        3       0.00199979      -0.07990191      -0.21908008
Pt       5.61442762       3.24149125      22.29206790        3      -0.03320530      -0.01517628      -0.08298961
Pt       8.42164155       3.24149130      22.29206809        3       0.03190655      -0.01426228      -0.08109243
Pt       4.21082091       5.67260997      22.29206801        3       0.00190565      -0.01110309      -0.01871768
Pt       7.01803488       5.67261037      22.29206781        3       0.00146762       0.01059010      -0.01114108
Pt       9.82524819       5.67261065      22.29206808        3       0.00229039      -0.02135323      -0.02010715
Pt      -0.00000056       1.62074567      24.58417371        2       0.03719448      -0.00009151      -0.07006635
Pt       2.80721444       1.62074547      24.58417389        2      -0.00012093       0.05043104      -0.16166668
Pt       5.61442780       1.62074536      24.58417372        2      -0.03655113      -0.00399461      -0.06170495
Pt       1.40360637       4.05186441      24.58417386        2      -0.17388912       0.11784615       0.25721648
Pt       4.21082088       4.05186402      24.58417378        2       0.16510996       0.10906544       0.25942773
Pt       7.01803505       4.05186404      24.58417403        2       0.00151403       0.06235482       0.14011613
Pt       2.80721282       6.48298342      24.58417366        2      -0.00437384      -0.00210813      -0.02936915
Pt       5.61442796       6.48298327      24.58417384        2       0.00283957      -0.15174568       0.13915062
Pt       8.42164224       6.48298339      24.58417376        2       0.00255334      -0.14513241       0.13338070
Pt       0.00044480      -0.01106040      26.90958537        1      -0.00629368       0.01842443      -0.01392575
Pt       2.80636457       0.05695300      26.88976345        1       0.00259011      -0.00647910       0.01183825
Pt       5.61315901      -0.01067757      26.91157034        1       0.00653653       0.01383952      -0.01365043
Pt       1.40632106       2.43968337      26.91338850        1       0.00521526      -0.02903859      -0.01727584
Pt       4.20946985       2.43925542      26.91369466        1      -0.00740610      -0.02750877      -0.01660585
Pt       7.01977419       2.36834803      26.88911544        1      -0.00375473      -0.00098072       0.01748962
Pt       2.80722905       4.86090759      26.90172088        1       0.00187908      -0.00716844       0.01916591
Pt       5.60958558       4.84784486      27.05750017        1      -0.01689261       0.00952964       0.00822818
Pt       8.42785993       4.84889256      27.05904738        1       0.01690822       0.00913544       0.00725226
O        7.01848331       4.87229828      29.69754016        0      -0.00089908       0.03891259       0.01396184
C        7.01780781       4.88474128      28.50967719        0       0.00195215      -0.03652719      -0.00508285
