38
Lattice="8.421641763931781 0.0 0.0 4.2108208819658905 7.293355709136913 0.0 0.0 0.0 46.87624170604845" Properties=species:S:1:pos:R:3:tags:I:1:forces:R:3 charge=0 spin=0 energy=-202.87924003244152 free_energy=-202.87924003244152 stress="0.010156090371310711 1.7431493688491173e-05 5.898389190406306e-06 1.7431493688491173e-05 0.009572038426995277 -2.6048170184367336e-05 5.898389190406306e-06 -2.6048170184367336e-05 -0.0004239000263623893" pbc="T T T"
Pt      -0.00000000       0.00000021      19.95723433        4       0.00318283       0.00098175       0.01795860
Pt       2.80721396      -0.00000008      19.95723446        4      -0.00048361       0.00115973       0.02175605
Pt       5.61442779      -0.00000016      19.95723449        4      -0.00067703      -0.00128435       0.01998722
Pt       1.40360720       2.43111835      19.95723435        4      -0.02058958      -0.00031068      -0.00685530
Pt       4.21082080       2.43111834      19.95723443        4       0.01992337      -0.00145888      -0.00421031
Pt       7.01803483       2.43111844      19.95723431        4      -0.00088490       0.00499531       0.00680723
Pt       2.80721405       4.86223724      19.95723403        4      -0.00085300      -0.00829378       0.02535400
Pt       5.61442805       4.86223734      19.95723421        4       0.00258645      -0.00079760       0.01520263
Pt       8.42164144       4.86223725      19.95723437        4      -0.00060729      -0.00357873       0.01293434
Pt       1.40360728       0.81037258      22.29206792        3       0.01007971       0.05721204      -0.11281665
Pt       4.21082126       0.81037248      22.29206794        3      -0.01075158       0.05394826      -0.11183273
Pt       7.01803474       0.81037256      22.29206786        3      -0.00140117       0.00987052      -0.06903610
Pt       2.80721448       3.24149124      22.29206779        3       0.00199991      -0.07990135      -0.21907933
Pt       5.61442762       3.24149125      22.29206790        3      -0.03320518      -0.01517622      -0.08299021
Pt       8.42164155       3.24149130      22.29206809        3       0.03190626      -0.01426196      -0.08109228
Pt       4.21082091       5.67260997      22.29206801        3       0.00190585      -0.01110305      -0.01871772
Pt       7.01803488       5.67261037      22.29206781        3       0.00146816       0.01059002      -0.01114084
Pt       9.82524819       5.67261065      22.29206808        3       0.00229019      -0.02135283      -0.02010731
Pt      -0.00000056       1.62074567      24.58417371        2       0.03719666      -0.00009267      -0.07006926
Pt       2.80721444       1.62074547      24.58417389        2      -0.00012091       0.05043092      -0.16166532
Pt       5.61442780       1.62074536      24.58417372        2      -0.03655291      -0.00399582      -0.06170760
Pt       1.40360637       4.05186441      24.58417386        2      -0.17388761       0.11784680       0.25721890
Pt       4.21082088       4.05186402      24.58417378        2       0.16510756       0.10906596       0.25942850
Pt       7.01803505       4.05186404      24.58417403        2       0.00151498       0.06235551       0.14011376
Pt       2.80721282       6.48298342      24.58417366        2      -0.00437294      -0.00210970      -0.02936921
Pt       5.61442796       6.48298327      24.58417384        2       0.00283939      -0.15174495       0.13914861
Pt       8.42164224       6.48298339      24.58417376        2       0.00255363      -0.14513224       0.13338046
Pt       0.00044504      -0.01106079      26.90958556        1      -0.00629638       0.01842413      -0.01392662
Pt       2.80636465       0.05695261      26.88976275        1       0.00259142      -0.00647702       0.01183844
Pt       5.61315902      -0.01067785      26.91157032        1       0.00653787       0.01384380      -0.01364971
Pt       1.40632098       2.43968341      26.91338871        1       0.00521722      -0.02904009      -0.01727563
Pt       4.20947016       2.43925568      26.91369463        1      -0.00740997      -0.02751326      -0.01660574
Pt       7.01977407       2.36834819      26.88911517        1      -0.00375422      -0.00098093       0.01749785
Pt       2.80722875       4.86090760      26.90172105        1       0.00187836      -0.00716892       0.01915955
Pt       5.60958544       4.84784511      27.05749978        1      -0.01687291       0.00952871       0.00825564
Pt       8.42785990       4.84889248      27.05904805        1       0.01689697       0.00913421       0.00726483
O        7.01848346       4.87229886      29.69754193        0      -0.00090602       0.03891445       0.01393787
C        7.01780770       4.88474114      28.50967900        0       0.00195025      -0.03652710      -0.00509685
