38
Lattice="8.421641763931781 0.0 0.0 4.2108208819658905 7.293355709136913 0.0 0.0 0.0 46.87624170604845" Properties=species:S:1:pos:R:3:tags:I:1:forces:R:3 charge=0 spin=0 energy=-202.87981414438 free_energy=-202.87981414438 stress="0.01014872919768095 1.7169320926768705e-05 6.274842689890647e-06 1.7169320926768705e-05 0.009566973894834518 -2.518490146030672e-05 6.274842689890647e-06 -2.518490146030672e-05 -0.00043797228136099875" pbc="T T T"
Pt      -0.00000000       0.00000021      19.95723433        4       0.00333653       0.00113083       0.01792328
Pt       2.80721396      -0.00000008      19.95723446        4      -0.00030740       0.00108965       0.02187197
Pt       5.61442779      -0.00000016      19.95723449        4      -0.00075142      -0.00098895       0.01984081
Pt       1.40360720       2.43111835      19.95723435        4      -0.02037535       0.00014469      -0.00679436
Pt       4.21082080       2.43111834      19.95723443        4       0.01983033      -0.00100454      -0.00436203
Pt       7.01803483       2.43111844      19.95723431        4      -0.00091664       0.00520933       0.00690677
Pt       2.80721405       4.86223724      19.95723403        4      -0.00093901      -0.00810172       0.02546202
Pt       5.61442805       4.86223734      19.95723421        4       0.00247824      -0.00092472       0.01515132
Pt       8.42164144       4.86223725      19.95723437        4      -0.00056328      -0.00373795       0.01293682
Pt       1.40360728       0.81037258      22.29206792        3       0.01076136       0.05830548      -0.11345011
Pt       4.21082126       0.81037248      22.29206794        3      -0.01142816       0.05486854      -0.11218813
Pt       7.01803474       0.81037256      22.29206786        3      -0.00146201       0.01078757      -0.06872030
Pt       2.80721448       3.24149124      22.29206779        3       0.00208105      -0.08004285      -0.21953216
Pt       5.61442762       3.24149125      22.29206790        3      -0.03295767      -0.01526930      -0.08304014
Pt       8.42164155       3.24149130      22.29206809        3       0.03181488      -0.01441115      -0.08087225
Pt       4.21082091       5.67260997      22.29206801        3       0.00262497      -0.01051994      -0.01683658
Pt       7.01803488       5.67261037      22.29206781        3       0.00171013       0.01041047      -0.01011526
Pt       9.82524819       5.67261065      22.29206808        3       0.00211683      -0.02076184      -0.01830919
Pt      -0.00000056       1.62074567      24.58417371        2       0.03052955       0.00442019      -0.08890215
Pt       2.80721444       1.62074547      24.58417389        2       0.00005378       0.04518030      -0.18824126
Pt       5.61442780       1.62074536      24.58417372        2      -0.03171013      -0.00045400      -0.08025222
Pt       1.40360637       4.05186441      24.58417386        2      -0.17099069       0.12562215       0.26350176
Pt       4.21082088       4.05186402      24.58417378        2       0.16243953       0.11687489       0.26495287
Pt       7.01803505       4.05186404      24.58417403        2       0.00113531       0.06694584       0.14908807
Pt       2.80721282       6.48298342      24.58417366        2      -0.00462815      -0.01697098      -0.03456365
Pt       5.61442796       6.48298327      24.58417384        2       0.00272411      -0.16285023       0.13629721
Pt       8.42164224       6.48298339      24.58417376        2       0.00223784      -0.15619817       0.12954868
Pt      -0.00188090      -0.00789930      26.90360125        1       0.00368158      -0.01108321       0.01047718
Pt       2.80646689       0.05262766      26.88766560        1       0.00029202      -0.01518552       0.01922581
Pt       5.61449484      -0.00896403      26.90578987        1      -0.00118864      -0.01043946       0.00937555
Pt       1.40717297       2.43351064      26.90605748        1      -0.00392615       0.00390635       0.01043002
Pt       4.20740719       2.43352575      26.90671620        1       0.00316699       0.00425424       0.01037308
Pt       7.01824435       2.36973370      26.88950798        1       0.00038863       0.01240251       0.02188611
Pt       2.80755882       4.85864220      26.90889202        1      -0.00005172      -0.00396890      -0.00853276
Pt       5.60720052       4.84807510      27.06280085        1       0.00192362      -0.00360588       0.00020414
Pt       8.43030833       4.84836821      27.06405335        1      -0.00295100      -0.00353599      -0.00059279
O        7.01840711       4.87252500      29.70210028        0       0.00006448       0.01247209      -0.01742730
C        7.01833220       4.87333895      28.51385209        0      -0.00024446       0.00603006       0.00727903
