38
Lattice="8.421641763931781 0.0 0.0 4.2108208819658905 7.293355709136913 0.0 0.0 0.0 46.87624170604845" Properties=species:S:1:pos:R:3:tags:I:1:forces:R:3 charge=0 spin=0 energy=-202.8796224558424 free_energy=-202.8796224558424 stress="0.010213053785264492 1.570878885104321e-05 6.503248187073041e-06 1.570878885104321e-05 0.00960248988121748 -1.2822663848055527e-05 6.503248187073041e-06 -1.2822663848055527e-05 -0.00035309421946294606" pbc="T T T"
Pt      -0.00000000       0.00000021      19.95723433        4       0.00337570       0.00060855       0.01800947
Pt       2.80721396      -0.00000008      19.95723446        4      -0.00033617       0.00044812       0.02182759
Pt       5.61442779      -0.00000016      19.95723449        4      -0.00084275      -0.00158461       0.01997520
Pt       1.40360720       2.43111835      19.95723435        4      -0.02004581      -0.00046474      -0.00637522
Pt       4.21082080       2.43111834      19.95723443        4       0.01958072      -0.00156346      -0.00392764
Pt       7.01803483       2.43111844      19.95723431        4      -0.00085311       0.00454523       0.00694763
Pt       2.80721405       4.86223724      19.95723403        4      -0.00082770      -0.00870153       0.02541940
Pt       5.61442805       4.86223734      19.95723421        4       0.00241897      -0.00140551       0.01530469
Pt       8.42164144       4.86223725      19.95723437        4      -0.00038660      -0.00420664       0.01308476
Pt       1.40360728       0.81037258      22.29206792        3       0.01046248       0.05572877      -0.11289316
Pt       4.21082126       0.81037248      22.29206794        3      -0.01127730       0.05246884      -0.11196411
Pt       7.01803474       0.81037256      22.29206786        3      -0.00151521       0.00828908      -0.06872211
Pt       2.80721448       3.24149124      22.29206779        3       0.00175480      -0.08057703      -0.21869865
Pt       5.61442762       3.24149125      22.29206790        3      -0.03297321      -0.01690606      -0.08342034
Pt       8.42164155       3.24149130      22.29206809        3       0.03146866      -0.01591209      -0.08149239
Pt       4.21082091       5.67260997      22.29206801        3       0.00199464      -0.01268135      -0.01867246
Pt       7.01803488       5.67261037      22.29206781        3       0.00138767       0.00826184      -0.01014049
Pt       9.82524819       5.67261065      22.29206808        3       0.00229863      -0.02305918      -0.02016802
Pt      -0.00000056       1.62074567      24.58417371        2       0.03287799       0.00820197      -0.07127929
Pt       2.80721444       1.62074547      24.58417389        2      -0.00008079       0.04691261      -0.16422828
Pt       5.61442780       1.62074536      24.58417372        2      -0.03254563       0.00474859      -0.06288964
Pt       1.40360637       4.05186441      24.58417386        2      -0.17240168       0.12592195       0.26462168
Pt       4.21082088       4.05186402      24.58417378        2       0.16417679       0.11732275       0.26636565
Pt       7.01803505       4.05186404      24.58417403        2       0.00128186       0.07238451       0.15617655
Pt       2.80721282       6.48298342      24.58417366        2      -0.00385378      -0.00273314      -0.02676967
Pt       5.61442796       6.48298327      24.58417384        2       0.00719802      -0.14694208       0.15632632
Pt       8.42164224       6.48298339      24.58417376        2      -0.00200844      -0.13966639       0.14864339
Pt      -0.00282678      -0.00033058      26.90950519        1       0.01073179      -0.00301908      -0.01209278
Pt       2.80671838       0.06483520      26.89661840        1       0.00065397      -0.02929199      -0.01131491
Pt       5.61701287      -0.00042273      26.91116681        1      -0.01076147      -0.00563187      -0.01049664
Pt       1.40716950       2.44222222      26.91108525        1      -0.00552035      -0.00195476      -0.00779413
Pt       4.20832548       2.44183799      26.91155483        1       0.00387805      -0.00126868      -0.00724247
Pt       7.01964103       2.37910707      26.89127998        1      -0.00255342       0.01082756       0.00991308
Pt       2.80753081       4.86604420      26.90549550        1       0.00035119      -0.00410852       0.00479293
Pt       5.60488019       4.85836270      27.06353135        1       0.01846530      -0.01094090      -0.00673812
Pt       8.43208792       4.86046680      27.06454785        1      -0.01607497      -0.01659097      -0.00663138
O        7.01870872       4.89057646      29.70043900        0      -0.00104206       0.01934072      -0.00941357
C        7.01790005       4.89237609      28.51217464        0       0.00154318      -0.00680067       0.00595698
