38
Lattice="8.421641763931781 0.0 0.0 4.2108208819658905 7.293355709136913 0.0 0.0 0.0 46.87624170604845" Properties=species:S:1:pos:R:3:tags:I:1:forces:R:3 charge=0 spin=0 energy=-202.87962436319103 free_energy=-202.87962436319103 stress="0.010213053785264492 1.5709254512330517e-05 6.501814368675696e-06 1.5709254512330517e-05 0.009602492675185204 -1.2820672054658644e-05 6.501814368675696e-06 -1.2820672054658644e-05 -0.0003530964895617217" pbc="T T T"
Pt      -0.00000000       0.00000021      19.95723433        4       0.00337572       0.00060847       0.01800951
Pt       2.80721396      -0.00000008      19.95723446        4      -0.00033612       0.00044816       0.02182746
Pt       5.61442779      -0.00000016      19.95723449        4      -0.00084270      -0.00158464       0.01997518
Pt       1.40360720       2.43111835      19.95723435        4      -0.02004572      -0.00046463      -0.00637541
Pt       4.21082080       2.43111834      19.95723443        4       0.01958062      -0.00156350      -0.00392770
Pt       7.01803483       2.43111844      19.95723431        4      -0.00085299       0.00454516       0.00694767
Pt       2.80721405       4.86223724      19.95723403        4      -0.00082778      -0.00870151       0.02541937
Pt       5.61442805       4.86223734      19.95723421        4       0.00241904      -0.00140560       0.01530486
Pt       8.42164144       4.86223725      19.95723437        4      -0.00038649      -0.00420660       0.01308485
Pt       1.40360728       0.81037258      22.29206792        3       0.01046247       0.05572883      -0.11289323
Pt       4.21082126       0.81037248      22.29206794        3      -0.01127737       0.05246898      -0.11196400
Pt       7.01803474       0.81037256      22.29206786        3      -0.00151512       0.00828918      -0.06872219
Pt       2.80721448       3.24149124      22.29206779        3       0.00175486      -0.08057699      -0.21869849
Pt       5.61442762       3.24149125      22.29206790        3      -0.03297336      -0.01690610      -0.08342030
Pt       8.42164155       3.24149130      22.29206809        3       0.03146885      -0.01591191      -0.08149258
Pt       4.21082091       5.67260997      22.29206801        3       0.00199462      -0.01268138      -0.01867267
Pt       7.01803488       5.67261037      22.29206781        3       0.00138763       0.00826183      -0.01014041
Pt       9.82524819       5.67261065      22.29206808        3       0.00229864      -0.02305921      -0.02016830
Pt      -0.00000056       1.62074567      24.58417371        2       0.03287809       0.00820217      -0.07127981
Pt       2.80721444       1.62074547      24.58417389        2      -0.00008094       0.04691276      -0.16422807
Pt       5.61442780       1.62074536      24.58417372        2      -0.03254561       0.00474864      -0.06288964
Pt       1.40360637       4.05186441      24.58417386        2      -0.17240198       0.12592193       0.26462173
Pt       4.21082088       4.05186402      24.58417378        2       0.16417699       0.11732293       0.26636595
Pt       7.01803505       4.05186404      24.58417403        2       0.00128191       0.07238465       0.15617681
Pt       2.80721282       6.48298342      24.58417366        2      -0.00385331      -0.00273275      -0.02677068
Pt       5.61442796       6.48298327      24.58417384        2       0.00719788      -0.14694206       0.15632670
Pt       8.42164224       6.48298339      24.58417376        2      -0.00200853      -0.13966648       0.14864348
Pt      -0.00282688      -0.00033036      26.90950525        1       0.01073162      -0.00301968      -0.01209199
Pt       2.80671836       0.06483524      26.89661842        1       0.00065404      -0.02929190      -0.01131490
Pt       5.61701317      -0.00042254      26.91116686        1      -0.01076143      -0.00563192      -0.01049649
Pt       1.40716971       2.44222206      26.91108552        1      -0.00552028      -0.00195440      -0.00779410
Pt       4.20832539       2.44183796      26.91155455        1       0.00387819      -0.00126858      -0.00724237
Pt       7.01964096       2.37910708      26.89128010        1      -0.00255366       0.01082773       0.00991307
Pt       2.80753065       4.86604408      26.90549561        1       0.00035107      -0.00410820       0.00479299
Pt       5.60488024       4.85836266      27.06353126        1       0.01846506      -0.01094046      -0.00673833
Pt       8.43208771       4.86046675      27.06454779        1      -0.01607496      -0.01659063      -0.00663156
O        7.01870873       4.89057622      29.70043891        0      -0.00104170       0.01934058      -0.00941630
C        7.01790009       4.89237637      28.51217545        0       0.00154306      -0.00680289       0.00596008
