38
Lattice="8.421641763931781 0.0 0.0 4.2108208819658905 7.293355709136913 0.0 0.0 0.0 46.87624170604845" Properties=species:S:1:pos:R:3:tags:I:1:forces:R:3 charge=0 spin=0 energy=-202.87921237588634 free_energy=-202.87921237588634 stress="0.010221927426755428 1.3778414540865924e-05 9.20652109925868e-06 1.3778414540865924e-05 0.00959073007106781 6.721108547935728e-06 9.20652109925868e-06 6.721108547935728e-06 -0.0003527328954078257" pbc="T T T"
Pt      -0.00000000       0.00000021      19.95723433        4       0.00341850       0.00007059       0.01776422
Pt       2.80721396      -0.00000008      19.95723446        4      -0.00020382       0.00011556       0.02179220
Pt       5.61442779      -0.00000016      19.95723449        4      -0.00061850      -0.00221787       0.01975546
Pt       1.40360720       2.43111835      19.95723435        4      -0.01978880      -0.00100845      -0.00631266
Pt       4.21082080       2.43111834      19.95723443        4       0.01951220      -0.00209936      -0.00384306
Pt       7.01803483       2.43111844      19.95723431        4      -0.00069795       0.00418313       0.00725310
Pt       2.80721405       4.86223724      19.95723403        4      -0.00072303      -0.00919400       0.02556191
Pt       5.61442805       4.86223734      19.95723421        4       0.00252081      -0.00162404       0.01511785
Pt       8.42164144       4.86223725      19.95723437        4      -0.00029271      -0.00436568       0.01302335
Pt       1.40360728       0.81037258      22.29206792        3       0.00995501       0.05453182      -0.11212428
Pt       4.21082126       0.81037248      22.29206794        3      -0.01053812       0.05164974      -0.11149514
Pt       7.01803474       0.81037256      22.29206786        3      -0.00133289       0.00670624      -0.06886560
Pt       2.80721448       3.24149124      22.29206779        3       0.00175249      -0.08153506      -0.21879525
Pt       5.61442762       3.24149125      22.29206790        3      -0.03276474      -0.01836651      -0.08528624
Pt       8.42164155       3.24149130      22.29206809        3       0.03126304      -0.01759013      -0.08299664
Pt       4.21082091       5.67260997      22.29206801        3       0.00168313      -0.01475920      -0.01904655
Pt       7.01803488       5.67261037      22.29206781        3       0.00149802       0.00655859      -0.00831946
Pt       9.82524819       5.67261065      22.29206808        3       0.00303680      -0.02509647      -0.02036043
Pt      -0.00000056       1.62074567      24.58417371        2       0.03286562       0.01248621      -0.07672217
Pt       2.80721444       1.62074547      24.58417389        2      -0.00089962       0.04936326      -0.16025242
Pt       5.61442780       1.62074536      24.58417372        2      -0.03378915       0.00861130      -0.06889805
Pt       1.40360637       4.05186441      24.58417386        2      -0.16924657       0.13591237       0.27081224
Pt       4.21082088       4.05186402      24.58417378        2       0.15876050       0.12670057       0.27105197
Pt       7.01803505       4.05186404      24.58417403        2       0.00134165       0.07740943       0.16148585
Pt       2.80721282       6.48298342      24.58417366        2      -0.00485598      -0.00312783      -0.02959936
Pt       5.61442796       6.48298327      24.58417384        2       0.01397802      -0.13930392       0.15458941
Pt       8.42164224       6.48298339      24.58417376        2      -0.00942396      -0.13337135       0.14779802
Pt      -0.00201192       0.00340880      26.90697141        1       0.00293890       0.01116269      -0.00210593
Pt       2.80627872       0.07491973      26.90186210        1      -0.00044660      -0.03727312      -0.02578394
Pt       5.61439202       0.00336446      26.90872753        1      -0.00149176       0.00712498      -0.00048747
Pt       1.40453078       2.45024058      26.90868053        1       0.00304294      -0.00129477      -0.00051698
Pt       4.20958586       2.44994723      26.90931268        1      -0.00463693      -0.00109160      -0.00018766
Pt       7.01884686       2.38178279      26.89056056        1      -0.00165113       0.03282913       0.01071536
Pt       2.80685149       4.87578255      26.91243069        1      -0.00128682      -0.02670757      -0.01707934
Pt       5.60374911       4.86792829      27.06267830        1       0.02713295      -0.03386056      -0.00200287
Pt       8.43089054       4.86968690      27.06507258        1      -0.01413153      -0.03869029      -0.01250395
O        7.01768561       4.94167880      29.69932124        0      -0.00211949       0.00644488      -0.00939813
C        7.01732753       4.92515651      28.51111103        0      -0.00376035       0.00071715       0.00626258
