38
Lattice="8.421641763931781 0.0 0.0 4.2108208819658905 7.293355709136913 0.0 0.0 0.0 46.87624170604845" Properties=species:S:1:pos:R:3:tags:I:1:forces:R:3 charge=0 spin=0 energy=-202.87924003244152 free_energy=-202.87924003244152 stress="0.010156083852052689 1.7431084415875375e-05 5.891921773581998e-06 1.7431084415875375e-05 0.00957204308360815 -2.6049498046631925e-05 5.891921773581998e-06 -2.6049498046631925e-05 -0.00042390378075651824" pbc="T T T"
Pt      -0.00000000       0.00000021      19.95723433        4       0.00318296       0.00098178       0.01795877
Pt       2.80721396      -0.00000008      19.95723446        4      -0.00048369       0.00115954       0.02175609
Pt       5.61442779      -0.00000016      19.95723449        4      -0.00067700      -0.00128442       0.01998714
Pt       1.40360720       2.43111835      19.95723435        4      -0.02058945      -0.00031057      -0.00685518
Pt       4.21082080       2.43111834      19.95723443        4       0.01992331      -0.00145890      -0.00421025
Pt       7.01803483       2.43111844      19.95723431        4      -0.00088489       0.00499538       0.00680702
Pt       2.80721405       4.86223724      19.95723403        4      -0.00085308      -0.00829370       0.02535394
Pt       5.61442805       4.86223734      19.95723421        4       0.00258668      -0.00079751       0.01520252
Pt       8.42164144       4.86223725      19.95723437        4      -0.00060729      -0.00357866       0.01293429
Pt       1.40360728       0.81037258      22.29206792        3       0.01007955       0.05721194      -0.11281678
Pt       4.21082126       0.81037248      22.29206794        3      -0.01075169       0.05394827      -0.11183274
Pt       7.01803474       0.81037256      22.29206786        3      -0.00140116       0.00987056      -0.06903602
Pt       2.80721448       3.24149124      22.29206779        3       0.00199962      -0.07990149      -0.21907985
Pt       5.61442762       3.24149125      22.29206790        3      -0.03320511      -0.01517625      -0.08299024
Pt       8.42164155       3.24149130      22.29206809        3       0.03190641      -0.01426207      -0.08109258
Pt       4.21082091       5.67260997      22.29206801        3       0.00190543      -0.01110270      -0.01871725
Pt       7.01803488       5.67261037      22.29206781        3       0.00146783       0.01059003      -0.01114052
Pt       9.82524819       5.67261065      22.29206808        3       0.00229000      -0.02135281      -0.02010712
Pt      -0.00000056       1.62074567      24.58417371        2       0.03719645      -0.00009290      -0.07006892
Pt       2.80721444       1.62074547      24.58417389        2      -0.00012099       0.05043095      -0.16166523
Pt       5.61442780       1.62074536      24.58417372        2      -0.03655261      -0.00399573      -0.06170726
Pt       1.40360637       4.05186441      24.58417386        2      -0.17388734       0.11784696       0.25721875
Pt       4.21082088       4.05186402      24.58417378        2       0.16510862       0.10906640       0.25943056
Pt       7.01803505       4.05186404      24.58417403        2       0.00151412       0.06235611       0.14011501
Pt       2.80721282       6.48298342      24.58417366        2      -0.00437287      -0.00210948      -0.02936804
Pt       5.61442796       6.48298327      24.58417384        2       0.00283944      -0.15174611       0.13915068
Pt       8.42164224       6.48298339      24.58417376        2       0.00255313      -0.14513302       0.13337888
Pt       0.00044519      -0.01106083      26.90958557        1      -0.00629640       0.01842337      -0.01392740
Pt       2.80636472       0.05695257      26.88976263        1       0.00258846      -0.00647636       0.01183846
Pt       5.61315885      -0.01067793      26.91157034        1       0.00654364       0.01384411      -0.01364994
Pt       1.40632091       2.43968353      26.91338866        1       0.00521768      -0.02904152      -0.01727540
Pt       4.20947018       2.43925575      26.91369469        1      -0.00741025      -0.02751214      -0.01660579
Pt       7.01977410       2.36834818      26.88911511        1      -0.00375420      -0.00098174       0.01749759
Pt       2.80722874       4.86090760      26.90172109        1       0.00188016      -0.00716846       0.01915902
Pt       5.60958566       4.84784513      27.05750048        1      -0.01688462       0.00952936       0.00823900
Pt       8.42785994       4.84889248      27.05904823        1       0.01689825       0.00913371       0.00726408
O        7.01848334       4.87229873      29.69754203        0      -0.00090166       0.03891542       0.01394152
C        7.01780762       4.88474117      28.50967960        0       0.00195251      -0.03652724      -0.00508701
