38
Lattice="8.421641763931781 0.0 0.0 4.2108208819658905 7.293355709136913 0.0 0.0 0.0 46.87624170604845" Properties=species:S:1:pos:R:3:tags:I:1:forces:R:3 charge=0 spin=0 energy=-202.87981414438 free_energy=-202.87981414438 stress="0.01014872919768095 1.7168653357657604e-05 6.276509338931646e-06 1.7168653357657604e-05 0.009566969238221645 -2.5183902835124172e-05 6.276509338931646e-06 -2.5183902835124172e-05 -0.00043797059333883226" pbc="T T T"
Pt      -0.00000000       0.00000021      19.95723433        4       0.00333627       0.00113078       0.01792323
Pt       2.80721396      -0.00000008      19.95723446        4      -0.00030725       0.00108960       0.02187210
Pt       5.61442779      -0.00000016      19.95723449        4      -0.00075146      -0.00098902       0.01984072
Pt       1.40360720       2.43111835      19.95723435        4      -0.02037526       0.00014480      -0.00679426
Pt       4.21082080       2.43111834      19.95723443        4       0.01983020      -0.00100465      -0.00436190
Pt       7.01803483       2.43111844      19.95723431        4      -0.00091668       0.00520922       0.00690655
Pt       2.80721405       4.86223724      19.95723403        4      -0.00093914      -0.00810187       0.02546219
Pt       5.61442805       4.86223734      19.95723421        4       0.00247832      -0.00092466       0.01515146
Pt       8.42164144       4.86223725      19.95723437        4      -0.00056325      -0.00373772       0.01293671
Pt       1.40360728       0.81037258      22.29206792        3       0.01076161       0.05830548      -0.11344993
Pt       4.21082126       0.81037248      22.29206794        3      -0.01142815       0.05486869      -0.11218830
Pt       7.01803474       0.81037256      22.29206786        3      -0.00146220       0.01078765      -0.06872026
Pt       2.80721448       3.24149124      22.29206779        3       0.00208149      -0.08004275      -0.21953177
Pt       5.61442762       3.24149125      22.29206790        3      -0.03295744      -0.01526889      -0.08303902
Pt       8.42164155       3.24149130      22.29206809        3       0.03181527      -0.01441157      -0.08087366
Pt       4.21082091       5.67260997      22.29206801        3       0.00262500      -0.01052003      -0.01683658
Pt       7.01803488       5.67261037      22.29206781        3       0.00171045       0.01041092      -0.01011480
Pt       9.82524819       5.67261065      22.29206808        3       0.00211678      -0.02076162      -0.01830921
Pt      -0.00000056       1.62074567      24.58417371        2       0.03052958       0.00442005      -0.08890317
Pt       2.80721444       1.62074547      24.58417389        2       0.00005388       0.04518026      -0.18824062
Pt       5.61442780       1.62074536      24.58417372        2      -0.03171004      -0.00045389      -0.08025144
Pt       1.40360637       4.05186441      24.58417386        2      -0.17099071       0.12562139       0.26350090
Pt       4.21082088       4.05186402      24.58417378        2       0.16243933       0.11687484       0.26495233
Pt       7.01803505       4.05186404      24.58417403        2       0.00113528       0.06694581       0.14908898
Pt       2.80721282       6.48298342      24.58417366        2      -0.00462768      -0.01697103      -0.03456447
Pt       5.61442796       6.48298327      24.58417384        2       0.00272440      -0.16285004       0.13629723
Pt       8.42164224       6.48298339      24.58417376        2       0.00223720      -0.15619791       0.12954783
Pt      -0.00188072      -0.00789938      26.90360121        1       0.00368214      -0.01108260       0.01047785
Pt       2.80646694       0.05262773      26.88766560        1       0.00029205      -0.01518664       0.01922567
Pt       5.61449489      -0.00896418      26.90578966        1      -0.00118884      -0.01043461       0.00937538
Pt       1.40717282       2.43351061      26.90605683        1      -0.00392459       0.00390484       0.01043065
Pt       4.20740721       2.43352607      26.90671631        1       0.00316860       0.00425370       0.01037224
Pt       7.01824477       2.36973365      26.88950815        1       0.00038509       0.01240503       0.02188611
Pt       2.80755862       4.85864221      26.90889255        1      -0.00004888      -0.00396998      -0.00853178
Pt       5.60720008       4.84807529      27.06280091        1       0.00193176      -0.00360862       0.00020754
Pt       8.43030911       4.84836826      27.06405353        1      -0.00296387      -0.00353674      -0.00058905
O        7.01840672       4.87252496      29.70210066        0       0.00006598       0.01247048      -0.01742796
C        7.01833201       4.87333883      28.51385188        0      -0.00024548       0.00603132       0.00727258
