38
Lattice="8.421641763931781 0.0 0.0 4.2108208819658905 7.293355709136913 0.0 0.0 0.0 46.87624170604845" Properties=species:S:1:pos:R:3:tags:I:1:forces:R:3 charge=0 spin=0 energy=-202.87924098611583 free_energy=-202.87924098611583 stress="0.010156068950891495 1.7431699234293774e-05 5.890702141186921e-06 1.7431699234293774e-05 0.009572034701704979 -2.6049805455841124e-05 5.890702141186921e-06 -2.6049805455841124e-05 -0.0004239357076585293" pbc="T T T"
Pt      -0.00000000       0.00000021      19.95723433        4       0.00318307       0.00098190       0.01795871
Pt       2.80721396      -0.00000008      19.95723446        4      -0.00048355       0.00115978       0.02175600
Pt       5.61442779      -0.00000016      19.95723449        4      -0.00067706      -0.00128429       0.01998714
Pt       1.40360720       2.43111835      19.95723435        4      -0.02058954      -0.00031071      -0.00685515
Pt       4.21082080       2.43111834      19.95723443        4       0.01992346      -0.00145891      -0.00421042
Pt       7.01803483       2.43111844      19.95723431        4      -0.00088489       0.00499533       0.00680711
Pt       2.80721405       4.86223724      19.95723403        4      -0.00085310      -0.00829376       0.02535392
Pt       5.61442805       4.86223734      19.95723421        4       0.00258660      -0.00079767       0.01520252
Pt       8.42164144       4.86223725      19.95723437        4      -0.00060722      -0.00357872       0.01293419
Pt       1.40360728       0.81037258      22.29206792        3       0.01007937       0.05721170      -0.11281691
Pt       4.21082126       0.81037248      22.29206794        3      -0.01075186       0.05394863      -0.11183256
Pt       7.01803474       0.81037256      22.29206786        3      -0.00140142       0.00987030      -0.06903628
Pt       2.80721448       3.24149124      22.29206779        3       0.00199966      -0.07990175      -0.21908000
Pt       5.61442762       3.24149125      22.29206790        3      -0.03320517      -0.01517638      -0.08298972
Pt       8.42164155       3.24149130      22.29206809        3       0.03190657      -0.01426222      -0.08109262
Pt       4.21082091       5.67260997      22.29206801        3       0.00190565      -0.01110300      -0.01871760
Pt       7.01803488       5.67261037      22.29206781        3       0.00146754       0.01058994      -0.01114098
Pt       9.82524819       5.67261065      22.29206808        3       0.00229024      -0.02135318      -0.02010753
Pt      -0.00000056       1.62074567      24.58417371        2       0.03719690      -0.00009229      -0.07007006
Pt       2.80721444       1.62074547      24.58417389        2      -0.00012079       0.05043121      -0.16166726
Pt       5.61442780       1.62074536      24.58417372        2      -0.03655314      -0.00399524      -0.06170785
Pt       1.40360637       4.05186441      24.58417386        2      -0.17388770       0.11784678       0.25721985
Pt       4.21082088       4.05186402      24.58417378        2       0.16510811       0.10906620       0.25943008
Pt       7.01803505       4.05186404      24.58417403        2       0.00151396       0.06235620       0.14011437
Pt       2.80721282       6.48298342      24.58417366        2      -0.00437325      -0.00211000      -0.02936856
Pt       5.61442796       6.48298327      24.58417384        2       0.00283956      -0.15174598       0.13914987
Pt       8.42164224       6.48298339      24.58417376        2       0.00255337      -0.14513248       0.13338046
Pt       0.00044511      -0.01106058      26.90958561        1      -0.00629599       0.01841977      -0.01392621
Pt       2.80636465       0.05695294      26.88976276        1       0.00259104      -0.00647876       0.01183842
Pt       5.61315904      -0.01067767      26.91157032        1       0.00653687       0.01383857      -0.01364945
Pt       1.40632107       2.43968320      26.91338863        1       0.00521679      -0.02903543      -0.01727569
Pt       4.20946996       2.43925554      26.91369459        1      -0.00740756      -0.02750938      -0.01660530
Pt       7.01977413       2.36834800      26.88911507        1      -0.00375492      -0.00097966       0.01749786
Pt       2.80722893       4.86090753      26.90172100        1       0.00187790      -0.00716866       0.01915837
Pt       5.60958574       4.84784510      27.05750055        1      -0.01689779       0.00952917       0.00822760
Pt       8.42785968       4.84889254      27.05904811        1       0.01691744       0.00913534       0.00724969
O        7.01848334       4.87229878      29.69754114        0      -0.00090145       0.03891417       0.01396054
C        7.01780770       4.88474120      28.50967876        0       0.00195218      -0.03652647      -0.00507632
