38
Lattice="8.421641763931781 0.0 0.0 4.2108208819658905 7.293355709136913 0.0 0.0 0.0 46.87624170604845" Properties=species:S:1:pos:R:3:tags:I:1:forces:R:3 charge=0 spin=0 energy=-202.87981223703136 free_energy=-202.87981223703136 stress="0.010148730129003525 1.7170945284306072e-05 6.2773774516244885e-06 1.7170945284306072e-05 0.009566978551447392 -2.5187837309204042e-05 6.2773774516244885e-06 -2.5187837309204042e-05 -0.000437892391346395" pbc="T T T"
Pt      -0.00000000       0.00000021      19.95723433        4       0.00333615       0.00113068       0.01792302
Pt       2.80721396      -0.00000008      19.95723446        4      -0.00030737       0.00108947       0.02187189
Pt       5.61442779      -0.00000016      19.95723449        4      -0.00075138      -0.00098899       0.01984076
Pt       1.40360720       2.43111835      19.95723435        4      -0.02037533       0.00014466      -0.00679423
Pt       4.21082080       2.43111834      19.95723443        4       0.01983020      -0.00100450      -0.00436188
Pt       7.01803483       2.43111844      19.95723431        4      -0.00091667       0.00520915       0.00690660
Pt       2.80721405       4.86223724      19.95723403        4      -0.00093908      -0.00810159       0.02546204
Pt       5.61442805       4.86223734      19.95723421        4       0.00247831      -0.00092458       0.01515140
Pt       8.42164144       4.86223725      19.95723437        4      -0.00056335      -0.00373789       0.01293678
Pt       1.40360728       0.81037258      22.29206792        3       0.01076192       0.05830567      -0.11344959
Pt       4.21082126       0.81037248      22.29206794        3      -0.01142819       0.05486862      -0.11218838
Pt       7.01803474       0.81037256      22.29206786        3      -0.00146187       0.01078780      -0.06872067
Pt       2.80721448       3.24149124      22.29206779        3       0.00208128      -0.08004303      -0.21953186
Pt       5.61442762       3.24149125      22.29206790        3      -0.03295790      -0.01526915      -0.08303986
Pt       8.42164155       3.24149130      22.29206809        3       0.03181553      -0.01441166      -0.08087366
Pt       4.21082091       5.67260997      22.29206801        3       0.00262516      -0.01051998      -0.01683636
Pt       7.01803488       5.67261037      22.29206781        3       0.00171040       0.01041044      -0.01011462
Pt       9.82524819       5.67261065      22.29206808        3       0.00211668      -0.02076185      -0.01830863
Pt      -0.00000056       1.62074567      24.58417371        2       0.03052910       0.00441942      -0.08890223
Pt       2.80721444       1.62074547      24.58417389        2       0.00005345       0.04518038      -0.18823725
Pt       5.61442780       1.62074536      24.58417372        2      -0.03170964      -0.00045475      -0.08025142
Pt       1.40360637       4.05186441      24.58417386        2      -0.17098890       0.12562320       0.26350376
Pt       4.21082088       4.05186402      24.58417378        2       0.16243784       0.11687574       0.26495391
Pt       7.01803505       4.05186404      24.58417403        2       0.00113499       0.06694631       0.14908703
Pt       2.80721282       6.48298342      24.58417366        2      -0.00462759      -0.01697188      -0.03456015
Pt       5.61442796       6.48298327      24.58417384        2       0.00272402      -0.16285020       0.13629580
Pt       8.42164224       6.48298339      24.58417376        2       0.00223805      -0.15619792       0.12954712
Pt      -0.00187988      -0.00789969      26.90360074        1       0.00367548      -0.01108204       0.01047646
Pt       2.80646696       0.05262684      26.88766484        1       0.00029224      -0.01517742       0.01922498
Pt       5.61449393      -0.00896434      26.90578943        1      -0.00118197      -0.01043285       0.00937529
Pt       1.40717225       2.43351125      26.90605660        1      -0.00391906       0.00390177       0.01042915
Pt       4.20740787       2.43352641      26.90671623        1       0.00316082       0.00424741       0.01037274
Pt       7.01824456       2.36973460      26.88950705        1       0.00038567       0.01239693       0.02188650
Pt       2.80755868       4.85864220      26.90889269        1      -0.00005133      -0.00396890      -0.00853914
Pt       5.60720069       4.84807534      27.06280103        1       0.00192526      -0.00360742       0.00021058
Pt       8.43030833       4.84836833      27.06405352        1      -0.00295305      -0.00353605      -0.00058648
O        7.01840666       4.87252465      29.70210223        0       0.00006528       0.01247364      -0.01759319
C        7.01833209       4.87333877      28.51385097        0      -0.00024547       0.00603134       0.00743374
