38
Lattice="8.421641763931781 0.0 0.0 4.2108208819658905 7.293355709136913 0.0 0.0 0.0 46.87624170604845" Properties=species:S:1:pos:R:3:tags:I:1:forces:R:3 charge=0 spin=0 energy=-202.87924003244152 free_energy=-202.87924003244152 stress="0.010156086646020412 1.742881431709975e-05 5.891819000680698e-06 1.742881431709975e-05 0.009572038426995277 -2.6048699510283768e-05 5.891819000680698e-06 -2.6048699510283768e-05 -0.0004239031986799091" pbc="T T T"
Pt      -0.00000000       0.00000021      19.95723433        4       0.00318302       0.00098181       0.01795879
Pt       2.80721396      -0.00000008      19.95723446        4      -0.00048356       0.00115957       0.02175615
Pt       5.61442779      -0.00000016      19.95723449        4      -0.00067714      -0.00128440       0.01998712
Pt       1.40360720       2.43111835      19.95723435        4      -0.02058945      -0.00031075      -0.00685509
Pt       4.21082080       2.43111834      19.95723443        4       0.01992338      -0.00145896      -0.00421019
Pt       7.01803483       2.43111844      19.95723431        4      -0.00088487       0.00499529       0.00680713
Pt       2.80721405       4.86223724      19.95723403        4      -0.00085310      -0.00829368       0.02535394
Pt       5.61442805       4.86223734      19.95723421        4       0.00258669      -0.00079759       0.01520254
Pt       8.42164144       4.86223725      19.95723437        4      -0.00060730      -0.00357867       0.01293434
Pt       1.40360728       0.81037258      22.29206792        3       0.01007959       0.05721194      -0.11281679
Pt       4.21082126       0.81037248      22.29206794        3      -0.01075170       0.05394847      -0.11183274
Pt       7.01803474       0.81037256      22.29206786        3      -0.00140119       0.00987054      -0.06903601
Pt       2.80721448       3.24149124      22.29206779        3       0.00199975      -0.07990146      -0.21907985
Pt       5.61442762       3.24149125      22.29206790        3      -0.03320528      -0.01517626      -0.08299016
Pt       8.42164155       3.24149130      22.29206809        3       0.03190604      -0.01426194      -0.08109222
Pt       4.21082091       5.67260997      22.29206801        3       0.00190543      -0.01110261      -0.01871709
Pt       7.01803488       5.67261037      22.29206781        3       0.00146773       0.01059013      -0.01114074
Pt       9.82524819       5.67261065      22.29206808        3       0.00229020      -0.02135285      -0.02010744
Pt      -0.00000056       1.62074567      24.58417371        2       0.03719621      -0.00009279      -0.07006817
Pt       2.80721444       1.62074547      24.58417389        2      -0.00012100       0.05043091      -0.16166523
Pt       5.61442780       1.62074536      24.58417372        2      -0.03655247      -0.00399590      -0.06170730
Pt       1.40360637       4.05186441      24.58417386        2      -0.17388733       0.11784677       0.25721881
Pt       4.21082088       4.05186402      24.58417378        2       0.16510819       0.10906615       0.25942960
Pt       7.01803505       4.05186404      24.58417403        2       0.00151418       0.06235621       0.14011477
Pt       2.80721282       6.48298342      24.58417366        2      -0.00437300      -0.00210934      -0.02936814
Pt       5.61442796       6.48298327      24.58417384        2       0.00283951      -0.15174603       0.13915011
Pt       8.42164224       6.48298339      24.58417376        2       0.00255303      -0.14513278       0.13337961
Pt       0.00044511      -0.01106080      26.90958555        1      -0.00629735       0.01842473      -0.01392727
Pt       2.80636447       0.05695257      26.88976292        1       0.00258971      -0.00647640       0.01183844
Pt       5.61315896      -0.01067798      26.91157031        1       0.00654283       0.01384400      -0.01365037
Pt       1.40632094       2.43968344      26.91338870        1       0.00521756      -0.02904141      -0.01727574
Pt       4.20947008       2.43925567      26.91369465        1      -0.00741058      -0.02751281      -0.01660564
Pt       7.01977407       2.36834830      26.88911515        1      -0.00375393      -0.00098344       0.01749767
Pt       2.80722901       4.86090754      26.90172108        1       0.00187879      -0.00716856       0.01915915
Pt       5.60958552       4.84784515      27.05750024        1      -0.01688087       0.00952958       0.00824053
Pt       8.42785995       4.84889248      27.05904811        1       0.01689818       0.00913414       0.00726425
O        7.01848334       4.87229889      29.69754202        0      -0.00090189       0.03891535       0.01394053
C        7.01780768       4.88474112      28.50967898        0       0.00195182      -0.03652707      -0.00508748
