38
Lattice="8.421641763931781 0.0 0.0 4.2108208819658905 7.293355709136913 0.0 0.0 0.0 46.87624170604845" Properties=species:S:1:pos:R:3:tags:I:1:forces:R:3 charge=0 spin=0 energy=-202.87920856118907 free_energy=-202.87920856118907 stress="0.010221938602626324 1.3776185369351879e-05 9.207303264702205e-06 1.3776185369351879e-05 0.009590741246938705 6.726114406774286e-06 9.207303264702205e-06 6.726114406774286e-06 -0.00035270597436465323" pbc="T T T"
Pt      -0.00000000       0.00000021      19.95723433        4       0.00341853       0.00007056       0.01776420
Pt       2.80721396      -0.00000008      19.95723446        4      -0.00020376       0.00011569       0.02179207
Pt       5.61442779      -0.00000016      19.95723449        4      -0.00061865      -0.00221791       0.01975531
Pt       1.40360720       2.43111835      19.95723435        4      -0.01978888      -0.00100848      -0.00631281
Pt       4.21082080       2.43111834      19.95723443        4       0.01951202      -0.00209933      -0.00384299
Pt       7.01803483       2.43111844      19.95723431        4      -0.00069770       0.00418312       0.00725316
Pt       2.80721405       4.86223724      19.95723403        4      -0.00072296      -0.00919387       0.02556185
Pt       5.61442805       4.86223734      19.95723421        4       0.00252069      -0.00162410       0.01511796
Pt       8.42164144       4.86223725      19.95723437        4      -0.00029270      -0.00436572       0.01302346
Pt       1.40360728       0.81037258      22.29206792        3       0.00995504       0.05453221      -0.11212514
Pt       4.21082126       0.81037248      22.29206794        3      -0.01053773       0.05164969      -0.11149459
Pt       7.01803474       0.81037256      22.29206786        3      -0.00133297       0.00670632      -0.06886572
Pt       2.80721448       3.24149124      22.29206779        3       0.00175253      -0.08153471      -0.21879537
Pt       5.61442762       3.24149125      22.29206790        3      -0.03276436      -0.01836646      -0.08528604
Pt       8.42164155       3.24149130      22.29206809        3       0.03126333      -0.01759011      -0.08299695
Pt       4.21082091       5.67260997      22.29206801        3       0.00168311      -0.01475900      -0.01904603
Pt       7.01803488       5.67261037      22.29206781        3       0.00149816       0.00655842      -0.00831866
Pt       9.82524819       5.67261065      22.29206808        3       0.00303662      -0.02509609      -0.02036084
Pt      -0.00000056       1.62074567      24.58417371        2       0.03286539       0.01248647      -0.07672129
Pt       2.80721444       1.62074547      24.58417389        2      -0.00089934       0.04936084      -0.16024818
Pt       5.61442780       1.62074536      24.58417372        2      -0.03378939       0.00861183      -0.06889726
Pt       1.40360637       4.05186441      24.58417386        2      -0.16924563       0.13591293       0.27081341
Pt       4.21082088       4.05186402      24.58417378        2       0.15876070       0.12670186       0.27105680
Pt       7.01803505       4.05186404      24.58417403        2       0.00134022       0.07741059       0.16148788
Pt       2.80721282       6.48298342      24.58417366        2      -0.00485510      -0.00312979      -0.02959795
Pt       5.61442796       6.48298327      24.58417384        2       0.01397911      -0.13930462       0.15459381
Pt       8.42164224       6.48298339      24.58417376        2      -0.00942518      -0.13337067       0.14780116
Pt      -0.00201200       0.00340902      26.90697170        1       0.00293915       0.01116257      -0.00210517
Pt       2.80627859       0.07491956      26.90186220        1      -0.00044592      -0.03727148      -0.02579184
Pt       5.61439234       0.00336455      26.90872783        1      -0.00149458       0.00712638      -0.00048759
Pt       1.40453070       2.45024064      26.90868055        1       0.00304438      -0.00129697      -0.00051692
Pt       4.20958582       2.44994713      26.90931314        1      -0.00463715      -0.00108956      -0.00018950
Pt       7.01884696       2.38178316      26.89055990        1      -0.00165197       0.03282849       0.01071508
Pt       2.80685143       4.87578263      26.91243209        1      -0.00128110      -0.02670764      -0.01708647
Pt       5.60374946       4.86792828      27.06267875        1       0.02713240      -0.03386000      -0.00200560
Pt       8.43089034       4.86968683      27.06507290        1      -0.01413935      -0.03868667      -0.01249616
O        7.01768581       4.94167854      29.69932271        0      -0.00211939       0.00644122      -0.00940494
C        7.01732752       4.92515695      28.51111231        0      -0.00375758       0.00071402       0.00625791
