38
Lattice="8.421641763931781 0.0 0.0 4.2108208819658905 7.293355709136913 0.0 0.0 0.0 46.87624170604845" Properties=species:S:1:pos:R:3:tags:I:1:forces:R:3 charge=0 spin=0 energy=-202.87981032968273 free_energy=-202.87981032968273 stress="0.010148727335035801 1.716791848593857e-05 6.278985893004574e-06 1.716791848593857e-05 0.009566964581608772 -2.5186765924445353e-05 6.278985893004574e-06 -2.5186765924445353e-05 -0.00043797914986498654" pbc="T T T"
Pt      -0.00000000       0.00000021      19.95723433        4       0.00333645       0.00113075       0.01792315
Pt       2.80721396      -0.00000008      19.95723446        4      -0.00030739       0.00108958       0.02187191
Pt       5.61442779      -0.00000016      19.95723449        4      -0.00075141      -0.00098921       0.01984068
Pt       1.40360720       2.43111835      19.95723435        4      -0.02037536       0.00014471      -0.00679421
Pt       4.21082080       2.43111834      19.95723443        4       0.01983031      -0.00100466      -0.00436193
Pt       7.01803483       2.43111844      19.95723431        4      -0.00091659       0.00520928       0.00690660
Pt       2.80721405       4.86223724      19.95723403        4      -0.00093901      -0.00810161       0.02546202
Pt       5.61442805       4.86223734      19.95723421        4       0.00247830      -0.00092451       0.01515134
Pt       8.42164144       4.86223725      19.95723437        4      -0.00056327      -0.00373800       0.01293688
Pt       1.40360728       0.81037258      22.29206792        3       0.01076139       0.05830577      -0.11344998
Pt       4.21082126       0.81037248      22.29206794        3      -0.01142811       0.05486886      -0.11218902
Pt       7.01803474       0.81037256      22.29206786        3      -0.00146214       0.01078749      -0.06872030
Pt       2.80721448       3.24149124      22.29206779        3       0.00208128      -0.08004321      -0.21953224
Pt       5.61442762       3.24149125      22.29206790        3      -0.03295767      -0.01526926      -0.08304039
Pt       8.42164155       3.24149130      22.29206809        3       0.03181497      -0.01441117      -0.08087189
Pt       4.21082091       5.67260997      22.29206801        3       0.00262487      -0.01052015      -0.01683664
Pt       7.01803488       5.67261037      22.29206781        3       0.00171008       0.01041064      -0.01011518
Pt       9.82524819       5.67261065      22.29206808        3       0.00211686      -0.02076193      -0.01830902
Pt      -0.00000056       1.62074567      24.58417371        2       0.03052990       0.00442050      -0.08890288
Pt       2.80721444       1.62074547      24.58417389        2       0.00005362       0.04518030      -0.18824151
Pt       5.61442780       1.62074536      24.58417372        2      -0.03171001      -0.00045366      -0.08025204
Pt       1.40360637       4.05186441      24.58417386        2      -0.17099211       0.12562275       0.26350406
Pt       4.21082088       4.05186402      24.58417378        2       0.16243938       0.11687491       0.26495284
Pt       7.01803505       4.05186404      24.58417403        2       0.00113642       0.06694632       0.14908983
Pt       2.80721282       6.48298342      24.58417366        2      -0.00462801      -0.01697103      -0.03456322
Pt       5.61442796       6.48298327      24.58417384        2       0.00272432      -0.16285037       0.13629781
Pt       8.42164224       6.48298339      24.58417376        2       0.00223799      -0.15619949       0.12955011
Pt      -0.00188086      -0.00789922      26.90360112        1       0.00368254      -0.01108722       0.01047616
Pt       2.80646689       0.05262795      26.88766551        1       0.00029242      -0.01518876       0.01922547
Pt       5.61449498      -0.00896389      26.90578961        1      -0.00118935      -0.01044064       0.00937567
Pt       1.40717315       2.43351071      26.90605689        1      -0.00392733       0.00390709       0.01043008
Pt       4.20740715       2.43352590      26.90671627        1       0.00316886       0.00425505       0.01037285
Pt       7.01824459       2.36973357      26.88950790        1       0.00038672       0.01240499       0.02188617
Pt       2.80755870       4.85864214      26.90889252        1      -0.00005194      -0.00396844      -0.00853272
Pt       5.60720053       4.84807514      27.06280207        1       0.00192332      -0.00360528       0.00020219
Pt       8.43030867       4.84836820      27.06405474        1      -0.00294462      -0.00353514      -0.00060542
O        7.01840670       4.87252485      29.70209992        0       0.00006262       0.01247349      -0.01741829
C        7.01833216       4.87333876      28.51385150        0      -0.00024838       0.00603104       0.00728107
