38
Lattice="8.421641763931781 0.0 0.0 4.2108208819658905 7.293355709136913 0.0 0.0 0.0 46.87624170604845" Properties=species:S:1:pos:R:3:tags:I:1:forces:R:3 charge=0 spin=0 energy=-202.8792104685377 free_energy=-202.8792104685377 stress="0.01022192370146513 1.3775658771919552e-05 9.202865840052254e-06 1.3775658771919552e-05 0.00959074404090643 6.726555056957295e-06 9.202865840052254e-06 6.726555056957295e-06 -0.0003527305962052196" pbc="T T T"
Pt      -0.00000000       0.00000021      19.95723433        4       0.00341845       0.00007070       0.01776416
Pt       2.80721396      -0.00000008      19.95723446        4      -0.00020371       0.00011553       0.02179207
Pt       5.61442779      -0.00000016      19.95723449        4      -0.00061843      -0.00221787       0.01975521
Pt       1.40360720       2.43111835      19.95723435        4      -0.01978876      -0.00100841      -0.00631268
Pt       4.21082080       2.43111834      19.95723443        4       0.01951236      -0.00209937      -0.00384306
Pt       7.01803483       2.43111844      19.95723431        4      -0.00069808       0.00418303       0.00725282
Pt       2.80721405       4.86223724      19.95723403        4      -0.00072288      -0.00919383       0.02556189
Pt       5.61442805       4.86223734      19.95723421        4       0.00252081      -0.00162397       0.01511775
Pt       8.42164144       4.86223725      19.95723437        4      -0.00029271      -0.00436531       0.01302316
Pt       1.40360728       0.81037258      22.29206792        3       0.00995463       0.05453195      -0.11212591
Pt       4.21082126       0.81037248      22.29206794        3      -0.01053822       0.05164971      -0.11149486
Pt       7.01803474       0.81037256      22.29206786        3      -0.00133348       0.00670588      -0.06886587
Pt       2.80721448       3.24149124      22.29206779        3       0.00175246      -0.08153533      -0.21879540
Pt       5.61442762       3.24149125      22.29206790        3      -0.03276432      -0.01836664      -0.08528629
Pt       8.42164155       3.24149130      22.29206809        3       0.03126349      -0.01759032      -0.08299758
Pt       4.21082091       5.67260997      22.29206801        3       0.00168291      -0.01475934      -0.01904581
Pt       7.01803488       5.67261037      22.29206781        3       0.00149793       0.00655853      -0.00831897
Pt       9.82524819       5.67261065      22.29206808        3       0.00303673      -0.02509661      -0.02036038
Pt      -0.00000056       1.62074567      24.58417371        2       0.03286572       0.01248661      -0.07672185
Pt       2.80721444       1.62074547      24.58417389        2      -0.00089952       0.04936438      -0.16025065
Pt       5.61442780       1.62074536      24.58417372        2      -0.03378933       0.00861142      -0.06889754
Pt       1.40360637       4.05186441      24.58417386        2      -0.16924591       0.13591252       0.27081195
Pt       4.21082088       4.05186402      24.58417378        2       0.15876114       0.12670133       0.27105287
Pt       7.01803505       4.05186404      24.58417403        2       0.00134054       0.07741042       0.16148713
Pt       2.80721282       6.48298342      24.58417366        2      -0.00485573      -0.00312791      -0.02960079
Pt       5.61442796       6.48298327      24.58417384        2       0.01397821      -0.13930549       0.15459150
Pt       8.42164224       6.48298339      24.58417376        2      -0.00942446      -0.13337161       0.14779842
Pt      -0.00201156       0.00340865      26.90697134        1       0.00293951       0.01116809      -0.00210326
Pt       2.80627864       0.07492043      26.90186207        1      -0.00044702      -0.03727441      -0.02578460
Pt       5.61439169       0.00336407      26.90872748        1      -0.00149275       0.00712899      -0.00048645
Pt       1.40453054       2.45024098      26.90867979        1       0.00304928      -0.00129963      -0.00051679
Pt       4.20958610       2.44994755      26.90931276        1      -0.00464056      -0.00109436      -0.00018779
Pt       7.01884678       2.38178235      26.89056069        1      -0.00165275       0.03283087       0.01071570
Pt       2.80685150       4.87578281      26.91242940        1      -0.00128587      -0.02671102      -0.01707830
Pt       5.60374922       4.86792804      27.06267900        1       0.02712786      -0.03385766      -0.00201380
Pt       8.43089053       4.86968664      27.06507329        1      -0.01413187      -0.03868698      -0.01250664
O        7.01768589       4.94167893      29.69932169        0      -0.00211651       0.00643633      -0.00941140
C        7.01732755       4.92515626      28.51111068        0      -0.00375897       0.00071991       0.00628200
