38
Lattice="8.421641763931781 0.0 0.0 4.2108208819658905 7.293355709136913 0.0 0.0 0.0 46.87624170604845" Properties=species:S:1:pos:R:3:tags:I:1:forces:R:3 charge=0 spin=0 energy=-202.87921237588634 free_energy=-202.87921237588634 stress="0.010221933014690876 1.3777548701909836e-05 9.20641377888387e-06 1.3777548701909836e-05 0.009590737521648407 6.725975254084915e-06 9.20641377888387e-06 6.725975254084915e-06 -0.0003526525106281042" pbc="T T T"
Pt      -0.00000000       0.00000021      19.95723433        4       0.00341849       0.00007063       0.01776412
Pt       2.80721396      -0.00000008      19.95723446        4      -0.00020383       0.00011567       0.02179216
Pt       5.61442779      -0.00000016      19.95723449        4      -0.00061842      -0.00221779       0.01975533
Pt       1.40360720       2.43111835      19.95723435        4      -0.01978881      -0.00100864      -0.00631268
Pt       4.21082080       2.43111834      19.95723443        4       0.01951229      -0.00209936      -0.00384314
Pt       7.01803483       2.43111844      19.95723431        4      -0.00069794       0.00418299       0.00725308
Pt       2.80721405       4.86223724      19.95723403        4      -0.00072292      -0.00919386       0.02556191
Pt       5.61442805       4.86223734      19.95723421        4       0.00252078      -0.00162410       0.01511785
Pt       8.42164144       4.86223725      19.95723437        4      -0.00029279      -0.00436563       0.01302316
Pt       1.40360728       0.81037258      22.29206792        3       0.00995499       0.05453216      -0.11212541
Pt       4.21082126       0.81037248      22.29206794        3      -0.01053789       0.05164967      -0.11149484
Pt       7.01803474       0.81037256      22.29206786        3      -0.00133307       0.00670630      -0.06886574
Pt       2.80721448       3.24149124      22.29206779        3       0.00175258      -0.08153484      -0.21879560
Pt       5.61442762       3.24149125      22.29206790        3      -0.03276449      -0.01836646      -0.08528596
Pt       8.42164155       3.24149130      22.29206809        3       0.03126330      -0.01759023      -0.08299770
Pt       4.21082091       5.67260997      22.29206801        3       0.00168313      -0.01475914      -0.01904590
Pt       7.01803488       5.67261037      22.29206781        3       0.00149788       0.00655842      -0.00831864
Pt       9.82524819       5.67261065      22.29206808        3       0.00303671      -0.02509618      -0.02036060
Pt      -0.00000056       1.62074567      24.58417371        2       0.03286548       0.01248654      -0.07672141
Pt       2.80721444       1.62074547      24.58417389        2      -0.00089951       0.04936098      -0.16024899
Pt       5.61442780       1.62074536      24.58417372        2      -0.03378925       0.00861164      -0.06889711
Pt       1.40360637       4.05186441      24.58417386        2      -0.16924481       0.13591328       0.27081445
Pt       4.21082088       4.05186402      24.58417378        2       0.15876031       0.12670168       0.27105507
Pt       7.01803505       4.05186404      24.58417403        2       0.00134036       0.07741036       0.16148725
Pt       2.80721282       6.48298342      24.58417366        2      -0.00485552      -0.00313002      -0.02959698
Pt       5.61442796       6.48298327      24.58417384        2       0.01397915      -0.13930468       0.15459386
Pt       8.42164224       6.48298339      24.58417376        2      -0.00942481      -0.13337073       0.14780110
Pt      -0.00201190       0.00340889      26.90697169        1       0.00293988       0.01116247      -0.00210530
Pt       2.80627863       0.07491981      26.90186215        1      -0.00044623      -0.03727280      -0.02579103
Pt       5.61439215       0.00336461      26.90872793        1      -0.00149459       0.00712540      -0.00048776
Pt       1.40453070       2.45024075      26.90868019        1       0.00304476      -0.00129733      -0.00051715
Pt       4.20958577       2.44994713      26.90931281        1      -0.00463708      -0.00109016      -0.00018891
Pt       7.01884696       2.38178303      26.89055999        1      -0.00165119       0.03282887       0.01071575
Pt       2.80685149       4.87578248      26.91243113        1      -0.00128591      -0.02670745      -0.01708683
Pt       5.60374943       4.86792810      27.06267845        1       0.02712851      -0.03385776      -0.00200913
Pt       8.43089034       4.86968666      27.06507247        1      -0.01413187      -0.03868712      -0.01250177
O        7.01768578       4.94167852      29.69932308        0      -0.00211845       0.00643793      -0.00955752
C        7.01732765       4.92515677      28.51111079        0      -0.00375908       0.00071917       0.00642114
