38
Lattice="8.421641763931781 0.0 0.0 4.2108208819658905 7.293355709136913 0.0 0.0 0.0 46.87624170604845" Properties=species:S:1:pos:R:3:tags:I:1:forces:R:3 charge=0 spin=0 energy=-202.87923812509288 free_energy=-202.87923812509288 stress="0.010156077332794666 1.743049688229803e-05 5.8923419601342175e-06 1.743049688229803e-05 0.009572040289640427 -2.6049261578009464e-05 5.8923419601342175e-06 -2.6049261578009464e-05 -0.0004239107365719974" pbc="T T T"
Pt      -0.00000000       0.00000021      19.95723433        4       0.00318296       0.00098177       0.01795871
Pt       2.80721396      -0.00000008      19.95723446        4      -0.00048376       0.00115968       0.02175605
Pt       5.61442779      -0.00000016      19.95723449        4      -0.00067702      -0.00128439       0.01998714
Pt       1.40360720       2.43111835      19.95723435        4      -0.02058950      -0.00031071      -0.00685515
Pt       4.21082080       2.43111834      19.95723443        4       0.01992337      -0.00145883      -0.00421034
Pt       7.01803483       2.43111844      19.95723431        4      -0.00088496       0.00499520       0.00680711
Pt       2.80721405       4.86223724      19.95723403        4      -0.00085290      -0.00829368       0.02535394
Pt       5.61442805       4.86223734      19.95723421        4       0.00258662      -0.00079746       0.01520267
Pt       8.42164144       4.86223725      19.95723437        4      -0.00060733      -0.00357862       0.01293419
Pt       1.40360728       0.81037258      22.29206792        3       0.01007945       0.05721183      -0.11281683
Pt       4.21082126       0.81037248      22.29206794        3      -0.01075165       0.05394826      -0.11183275
Pt       7.01803474       0.81037256      22.29206786        3      -0.00140110       0.00987031      -0.06903575
Pt       2.80721448       3.24149124      22.29206779        3       0.00199974      -0.07990137      -0.21907993
Pt       5.61442762       3.24149125      22.29206790        3      -0.03320530      -0.01517628      -0.08298986
Pt       8.42164155       3.24149130      22.29206809        3       0.03190641      -0.01426223      -0.08109254
Pt       4.21082091       5.67260997      22.29206801        3       0.00190540      -0.01110267      -0.01871720
Pt       7.01803488       5.67261037      22.29206781        3       0.00146779       0.01058999      -0.01114053
Pt       9.82524819       5.67261065      22.29206808        3       0.00229021      -0.02135289      -0.02010757
Pt      -0.00000056       1.62074567      24.58417371        2       0.03719650      -0.00009260      -0.07006939
Pt       2.80721444       1.62074547      24.58417389        2      -0.00012087       0.05043084      -0.16166541
Pt       5.61442780       1.62074536      24.58417372        2      -0.03655257      -0.00399555      -0.06170732
Pt       1.40360637       4.05186441      24.58417386        2      -0.17388889       0.11784626       0.25721675
Pt       4.21082088       4.05186402      24.58417378        2       0.16511013       0.10906570       0.25942799
Pt       7.01803505       4.05186404      24.58417403        2       0.00151414       0.06235607       0.14011499
Pt       2.80721282       6.48298342      24.58417366        2      -0.00437294      -0.00210768      -0.02937080
Pt       5.61442796       6.48298327      24.58417384        2       0.00283949      -0.15174636       0.13915014
Pt       8.42164224       6.48298339      24.58417376        2       0.00255284      -0.14513274       0.13337927
Pt       0.00044507      -0.01106066      26.90958559        1      -0.00629604       0.01842243      -0.01392643
Pt       2.80636448       0.05695270      26.88976286        1       0.00259003      -0.00647687       0.01183856
Pt       5.61315889      -0.01067785      26.91157035        1       0.00654249       0.01384468      -0.01365005
Pt       1.40632095       2.43968347      26.91338873        1       0.00521733      -0.02904100      -0.01727536
Pt       4.20947010       2.43925569      26.91369463        1      -0.00740979      -0.02751242      -0.01660562
Pt       7.01977409       2.36834815      26.88911512        1      -0.00375473      -0.00098100       0.01749779
Pt       2.80722897       4.86090755      26.90172079        1       0.00187906      -0.00716864       0.01916627
Pt       5.60958563       4.84784507      27.05750038        1      -0.01688387       0.00952962       0.00823913
Pt       8.42786002       4.84889248      27.05904812        1       0.01689807       0.00913383       0.00726397
O        7.01848333       4.87229866      29.69754181        0      -0.00090154       0.03891471       0.01394053
C        7.01780767       4.88474120      28.50967956        0       0.00195246      -0.03652710      -0.00508650
