38
Lattice="8.421641763931781 0.0 0.0 4.2108208819658905 7.293355709136913 0.0 0.0 0.0 46.87624170604845" Properties=species:S:1:pos:R:3:tags:I:1:forces:R:3 charge=0 spin=0 energy=-202.87924003244152 free_energy=-202.87924003244152 stress="0.010156090371310711 1.742895801726263e-05 5.890633929084288e-06 1.742895801726263e-05 0.00957204308360815 -2.605132249300368e-05 5.890633929084288e-06 -2.605132249300368e-05 -0.0004239075933583081" pbc="T T T"
Pt      -0.00000000       0.00000021      19.95723433        4       0.00318298       0.00098184       0.01795873
Pt       2.80721396      -0.00000008      19.95723446        4      -0.00048363       0.00115970       0.02175607
Pt       5.61442779      -0.00000016      19.95723449        4      -0.00067715      -0.00128453       0.01998733
Pt       1.40360720       2.43111835      19.95723435        4      -0.02058947      -0.00031074      -0.00685520
Pt       4.21082080       2.43111834      19.95723443        4       0.01992340      -0.00145874      -0.00421046
Pt       7.01803483       2.43111844      19.95723431        4      -0.00088485       0.00499545       0.00680725
Pt       2.80721405       4.86223724      19.95723403        4      -0.00085310      -0.00829370       0.02535383
Pt       5.61442805       4.86223734      19.95723421        4       0.00258640      -0.00079761       0.01520254
Pt       8.42164144       4.86223725      19.95723437        4      -0.00060721      -0.00357877       0.01293421
Pt       1.40360728       0.81037258      22.29206792        3       0.01007943       0.05721185      -0.11281666
Pt       4.21082126       0.81037248      22.29206794        3      -0.01075175       0.05394834      -0.11183273
Pt       7.01803474       0.81037256      22.29206786        3      -0.00140116       0.00987042      -0.06903605
Pt       2.80721448       3.24149124      22.29206779        3       0.00199963      -0.07990167      -0.21907952
Pt       5.61442762       3.24149125      22.29206790        3      -0.03320513      -0.01517634      -0.08299001
Pt       8.42164155       3.24149130      22.29206809        3       0.03190607      -0.01426209      -0.08109204
Pt       4.21082091       5.67260997      22.29206801        3       0.00190567      -0.01110285      -0.01871772
Pt       7.01803488       5.67261037      22.29206781        3       0.00146777       0.01058989      -0.01114093
Pt       9.82524819       5.67261065      22.29206808        3       0.00229004      -0.02135286      -0.02010730
Pt      -0.00000056       1.62074567      24.58417371        2       0.03719681      -0.00009272      -0.07006978
Pt       2.80721444       1.62074547      24.58417389        2      -0.00012092       0.05043116      -0.16166602
Pt       5.61442780       1.62074536      24.58417372        2      -0.03655262      -0.00399548      -0.06170752
Pt       1.40360637       4.05186441      24.58417386        2      -0.17388749       0.11784703       0.25721872
Pt       4.21082088       4.05186402      24.58417378        2       0.16510837       0.10906626       0.25942987
Pt       7.01803505       4.05186404      24.58417403        2       0.00151411       0.06235633       0.14011517
Pt       2.80721282       6.48298342      24.58417366        2      -0.00437289      -0.00210975      -0.02936915
Pt       5.61442796       6.48298327      24.58417384        2       0.00283985      -0.15174589       0.13915040
Pt       8.42164224       6.48298339      24.58417376        2       0.00255360      -0.14513263       0.13338044
Pt       0.00044511      -0.01106071      26.90958563        1      -0.00629498       0.01842166      -0.01392598
Pt       2.80636469       0.05695279      26.88976275        1       0.00258954      -0.00647823       0.01183842
Pt       5.61315907      -0.01067781      26.91157040        1       0.00653762       0.01383945      -0.01365011
Pt       1.40632100       2.43968336      26.91338877        1       0.00521884      -0.02904097      -0.01727508
Pt       4.20947008       2.43925579      26.91369465        1      -0.00740960      -0.02751219      -0.01660560
Pt       7.01977422       2.36834810      26.88911501        1      -0.00375686      -0.00097920       0.01749808
Pt       2.80722894       4.86090752      26.90172111        1       0.00187941      -0.00716834       0.01915924
Pt       5.60958526       4.84784507      27.05750082        1      -0.01688000       0.00953000       0.00824044
Pt       8.42785989       4.84889246      27.05904807        1       0.01689850       0.00913617       0.00726401
O        7.01848331       4.87229876      29.69754163        0      -0.00090104       0.03891674       0.01394388
C        7.01780767       4.88474118      28.50967922        0       0.00195174      -0.03652701      -0.00509074
