38
Lattice="8.421641763931781 0.0 0.0 4.2108208819658905 7.293355709136913 0.0 0.0 0.0 46.87624170604845" Properties=species:S:1:pos:R:3:tags:I:1:forces:R:3 charge=0 spin=0 energy=-202.87924098611583 free_energy=-202.87924098611583 stress="0.010156075470149517 1.7426646081730723e-05 5.891702585358871e-06 1.7426646081730723e-05 0.009572031907737255 -2.6050143787870184e-05 5.891702585358871e-06 -2.6050143787870184e-05 -0.00042392511386424303" pbc="T T T"
Pt      -0.00000000       0.00000021      19.95723433        4       0.00318307       0.00098192       0.01795862
Pt       2.80721396      -0.00000008      19.95723446        4      -0.00048361       0.00115964       0.02175592
Pt       5.61442779      -0.00000016      19.95723449        4      -0.00067706      -0.00128440       0.01998724
Pt       1.40360720       2.43111835      19.95723435        4      -0.02058952      -0.00031070      -0.00685515
Pt       4.21082080       2.43111834      19.95723443        4       0.01992348      -0.00145879      -0.00421040
Pt       7.01803483       2.43111844      19.95723431        4      -0.00088491       0.00499549       0.00680719
Pt       2.80721405       4.86223724      19.95723403        4      -0.00085307      -0.00829377       0.02535392
Pt       5.61442805       4.86223734      19.95723421        4       0.00258657      -0.00079755       0.01520263
Pt       8.42164144       4.86223725      19.95723437        4      -0.00060725      -0.00357879       0.01293419
Pt       1.40360728       0.81037258      22.29206792        3       0.01007946       0.05721189      -0.11281684
Pt       4.21082126       0.81037248      22.29206794        3      -0.01075174       0.05394830      -0.11183257
Pt       7.01803474       0.81037256      22.29206786        3      -0.00140132       0.00987036      -0.06903610
Pt       2.80721448       3.24149124      22.29206779        3       0.00199957      -0.07990162      -0.21907987
Pt       5.61442762       3.24149125      22.29206790        3      -0.03320523      -0.01517635      -0.08298957
Pt       8.42164155       3.24149130      22.29206809        3       0.03190654      -0.01426225      -0.08109282
Pt       4.21082091       5.67260997      22.29206801        3       0.00190571      -0.01110296      -0.01871793
Pt       7.01803488       5.67261037      22.29206781        3       0.00146765       0.01058993      -0.01114092
Pt       9.82524819       5.67261065      22.29206808        3       0.00229002      -0.02135301      -0.02010750
Pt      -0.00000056       1.62074567      24.58417371        2       0.03719664      -0.00009242      -0.07006997
Pt       2.80721444       1.62074547      24.58417389        2      -0.00012076       0.05043082      -0.16166720
Pt       5.61442780       1.62074536      24.58417372        2      -0.03655302      -0.00399507      -0.06170797
Pt       1.40360637       4.05186441      24.58417386        2      -0.17388941       0.11784646       0.25721779
Pt       4.21082088       4.05186402      24.58417378        2       0.16511059       0.10906562       0.25942820
Pt       7.01803505       4.05186404      24.58417403        2       0.00151396       0.06235619       0.14011452
Pt       2.80721282       6.48298342      24.58417366        2      -0.00437306      -0.00210799      -0.02937134
Pt       5.61442796       6.48298327      24.58417384        2       0.00283973      -0.15174603       0.13915029
Pt       8.42164224       6.48298339      24.58417376        2       0.00255367      -0.14513293       0.13338009
Pt       0.00044509      -0.01106062      26.90958559        1      -0.00629502       0.01842163      -0.01392585
Pt       2.80636466       0.05695301      26.88976280        1       0.00258917      -0.00647922       0.01183894
Pt       5.61315906      -0.01067773      26.91157028        1       0.00653679       0.01383764      -0.01364973
Pt       1.40632106       2.43968321      26.91338867        1       0.00521678      -0.02903856      -0.01727485
Pt       4.20946997       2.43925554      26.91369463        1      -0.00740685      -0.02750826      -0.01660568
Pt       7.01977411       2.36834796      26.88911508        1      -0.00375436      -0.00097898       0.01749830
Pt       2.80722893       4.86090755      26.90172092        1       0.00187780      -0.00716866       0.01916608
Pt       5.60958572       4.84784507      27.05750074        1      -0.01688760       0.00952944       0.00823886
Pt       8.42785967       4.84889255      27.05904829        1       0.01690866       0.00913533       0.00725927
O        7.01848338       4.87229881      29.69754153        0      -0.00090199       0.03891494       0.01394977
C        7.01780766       4.88474120      28.50967922        0       0.00195006      -0.03652716      -0.00508938
