38
Lattice="8.421641763931781 0.0 0.0 4.2108208819658905 7.293355709136913 0.0 0.0 0.0 46.87624170604845" Properties=species:S:1:pos:R:3:tags:I:1:forces:R:3 charge=0 spin=0 energy=-202.87921237588634 free_energy=-202.87921237588634 stress="0.010221913456916809 1.377726857754169e-05 9.204067282553297e-06 1.377726857754169e-05 0.009590745903551579 6.7266537371324375e-06 9.204067282553297e-06 6.7266537371324375e-06 -0.0003526734362822026" pbc="T T T"
Pt      -0.00000000       0.00000021      19.95723433        4       0.00341852       0.00007059       0.01776397
Pt       2.80721396      -0.00000008      19.95723446        4      -0.00020365       0.00011553       0.02179195
Pt       5.61442779      -0.00000016      19.95723449        4      -0.00061845      -0.00221795       0.01975531
Pt       1.40360720       2.43111835      19.95723435        4      -0.01978892      -0.00100830      -0.00631271
Pt       4.21082080       2.43111834      19.95723443        4       0.01951231      -0.00209939      -0.00384301
Pt       7.01803483       2.43111844      19.95723431        4      -0.00069783       0.00418317       0.00725282
Pt       2.80721405       4.86223724      19.95723403        4      -0.00072292      -0.00919385       0.02556178
Pt       5.61442805       4.86223734      19.95723421        4       0.00252089      -0.00162392       0.01511788
Pt       8.42164144       4.86223725      19.95723437        4      -0.00029272      -0.00436558       0.01302314
Pt       1.40360728       0.81037258      22.29206792        3       0.00995478       0.05453231      -0.11212622
Pt       4.21082126       0.81037248      22.29206794        3      -0.01053823       0.05164991      -0.11149524
Pt       7.01803474       0.81037256      22.29206786        3      -0.00133368       0.00670604      -0.06886600
Pt       2.80721448       3.24149124      22.29206779        3       0.00175250      -0.08153535      -0.21879596
Pt       5.61442762       3.24149125      22.29206790        3      -0.03276427      -0.01836676      -0.08528649
Pt       8.42164155       3.24149130      22.29206809        3       0.03126331      -0.01759036      -0.08299701
Pt       4.21082091       5.67260997      22.29206801        3       0.00168296      -0.01475917      -0.01904586
Pt       7.01803488       5.67261037      22.29206781        3       0.00149784       0.00655851      -0.00831855
Pt       9.82524819       5.67261065      22.29206808        3       0.00303659      -0.02509653      -0.02036029
Pt      -0.00000056       1.62074567      24.58417371        2       0.03286554       0.01248636      -0.07672121
Pt       2.80721444       1.62074547      24.58417389        2      -0.00089962       0.04936427      -0.16025046
Pt       5.61442780       1.62074536      24.58417372        2      -0.03378930       0.00861186      -0.06889699
Pt       1.40360637       4.05186441      24.58417386        2      -0.16924715       0.13591354       0.27081457
Pt       4.21082088       4.05186402      24.58417378        2       0.15876225       0.12670183       0.27105457
Pt       7.01803505       4.05186404      24.58417403        2       0.00134054       0.07741118       0.16148959
Pt       2.80721282       6.48298342      24.58417366        2      -0.00485559      -0.00312841      -0.02959985
Pt       5.61442796       6.48298327      24.58417384        2       0.01397790      -0.13930699       0.15459339
Pt       8.42164224       6.48298339      24.58417376        2      -0.00942418      -0.13337347       0.14780007
Pt      -0.00201124       0.00340827      26.90697117        1       0.00294030       0.01116606      -0.00210491
Pt       2.80627862       0.07492038      26.90186213        1      -0.00044640      -0.03727305      -0.02578468
Pt       5.61439164       0.00336386      26.90872747        1      -0.00149315       0.00712901      -0.00048658
Pt       1.40453037       2.45024120      26.90867988        1       0.00304882      -0.00129789      -0.00051768
Pt       4.20958627       2.44994804      26.90931252        1      -0.00463920      -0.00109455      -0.00018817
Pt       7.01884678       2.38178224      26.89056058        1      -0.00165247       0.03283040       0.01071612
Pt       2.80685149       4.87578293      26.91242893        1      -0.00128676      -0.02671009      -0.01707941
Pt       5.60375012       4.86792809      27.06268036        1       0.02710995      -0.03385879      -0.00202916
Pt       8.43088920       4.86968658      27.06507497        1      -0.01411364      -0.03868772      -0.01252224
O        7.01768591       4.94167933      29.69932377        0      -0.00211757       0.00643467      -0.00955315
C        7.01732767       4.92515631      28.51111113        0      -0.00375920       0.00072291       0.00644659
