38
Lattice="8.421641763931781 0.0 0.0 4.2108208819658905 7.293355709136913 0.0 0.0 0.0 46.87624170604845" Properties=species:S:1:pos:R:3:tags:I:1:forces:R:3 charge=0 spin=0 energy=-202.8796224558424 free_energy=-202.8796224558424 stress="0.010213063098490238 1.5711921150796115e-05 6.501788902824046e-06 1.5711921150796115e-05 0.009602501057088375 -1.2823569704778492e-05 6.501788902824046e-06 -1.2823569704778492e-05 -0.00035314439446665347" pbc="T T T"
Pt      -0.00000000       0.00000021      19.95723433        4       0.00337565       0.00060853       0.01800951
Pt       2.80721396      -0.00000008      19.95723446        4      -0.00033617       0.00044806       0.02182768
Pt       5.61442779      -0.00000016      19.95723449        4      -0.00084288      -0.00158471       0.01997528
Pt       1.40360720       2.43111835      19.95723435        4      -0.02004570      -0.00046478      -0.00637522
Pt       4.21082080       2.43111834      19.95723443        4       0.01958073      -0.00156351      -0.00392755
Pt       7.01803483       2.43111844      19.95723431        4      -0.00085311       0.00454523       0.00694771
Pt       2.80721405       4.86223724      19.95723403        4      -0.00082771      -0.00870161       0.02541927
Pt       5.61442805       4.86223734      19.95723421        4       0.00241894      -0.00140575       0.01530488
Pt       8.42164144       4.86223725      19.95723437        4      -0.00038646      -0.00420667       0.01308478
Pt       1.40360728       0.81037258      22.29206792        3       0.01046257       0.05572867      -0.11289345
Pt       4.21082126       0.81037248      22.29206794        3      -0.01127727       0.05246896      -0.11196426
Pt       7.01803474       0.81037256      22.29206786        3      -0.00151526       0.00828900      -0.06872208
Pt       2.80721448       3.24149124      22.29206779        3       0.00175510      -0.08057699      -0.21869828
Pt       5.61442762       3.24149125      22.29206790        3      -0.03297347      -0.01690602      -0.08342011
Pt       8.42164155       3.24149130      22.29206809        3       0.03146878      -0.01591182      -0.08149222
Pt       4.21082091       5.67260997      22.29206801        3       0.00199478      -0.01268128      -0.01867290
Pt       7.01803488       5.67261037      22.29206781        3       0.00138726       0.00826207      -0.01014015
Pt       9.82524819       5.67261065      22.29206808        3       0.00229884      -0.02305887      -0.02016775
Pt      -0.00000056       1.62074567      24.58417371        2       0.03287661       0.00820468      -0.07127974
Pt       2.80721444       1.62074547      24.58417389        2      -0.00008122       0.04691263      -0.16422854
Pt       5.61442780       1.62074536      24.58417372        2      -0.03254368       0.00474954      -0.06288716
Pt       1.40360637       4.05186441      24.58417386        2      -0.17240253       0.12592183       0.26462218
Pt       4.21082088       4.05186402      24.58417378        2       0.16417745       0.11732271       0.26636612
Pt       7.01803505       4.05186404      24.58417403        2       0.00128193       0.07238327       0.15617847
Pt       2.80721282       6.48298342      24.58417366        2      -0.00385473      -0.00273354      -0.02677229
Pt       5.61442796       6.48298327      24.58417384        2       0.00719894      -0.14694306       0.15632515
Pt       8.42164224       6.48298339      24.58417376        2      -0.00200838      -0.13966647       0.14864384
Pt      -0.00282693      -0.00033038      26.90950467        1       0.01073261      -0.00302168      -0.01208663
Pt       2.80671836       0.06483522      26.89661840        1       0.00065464      -0.02929265      -0.01131503
Pt       5.61701319      -0.00042264      26.91116685        1      -0.01076215      -0.00563129      -0.01049668
Pt       1.40716971       2.44222213      26.91108541        1      -0.00552035      -0.00195382      -0.00779374
Pt       4.20832538       2.44183788      26.91155456        1       0.00387818      -0.00127074      -0.00724061
Pt       7.01964095       2.37910697      26.89128020        1      -0.00255488       0.01082834       0.00990577
Pt       2.80753071       4.86604425      26.90549548        1       0.00035113      -0.00410902       0.00479293
Pt       5.60488051       4.85836250      27.06353179        1       0.01847260      -0.01094079      -0.00673238
Pt       8.43208755       4.86046682      27.06454803        1      -0.01608203      -0.01659060      -0.00662508
O        7.01870864       4.89057654      29.70043935        0      -0.00104113       0.01934536      -0.00926632
C        7.01789995       4.89237620      28.51217587        0       0.00154259      -0.00680358       0.00579447
