38
Lattice="8.421641763931781 0.0 0.0 4.2108208819658905 7.293355709136913 0.0 0.0 0.0 46.87624170604845" Properties=species:S:1:pos:R:3:tags:I:1:forces:R:3 charge=0 spin=0 energy=-202.87921237588634 free_energy=-202.87921237588634 stress="0.010221922770142555 1.3778769243799616e-05 9.2060181486886e-06 1.3778769243799616e-05 0.009590736590325832 6.721792487951461e-06 9.2060181486886e-06 6.721792487951461e-06 -0.00035273763933219016" pbc="T T T"
Pt      -0.00000000       0.00000021      19.95723433        4       0.00341852       0.00007049       0.01776414
Pt       2.80721396      -0.00000008      19.95723446        4      -0.00020368       0.00011546       0.02179216
Pt       5.61442779      -0.00000016      19.95723449        4      -0.00061846      -0.00221789       0.01975523
Pt       1.40360720       2.43111835      19.95723435        4      -0.01978886      -0.00100829      -0.00631290
Pt       4.21082080       2.43111834      19.95723443        4       0.01951211      -0.00209924      -0.00384301
Pt       7.01803483       2.43111844      19.95723431        4      -0.00069784       0.00418312       0.00725282
Pt       2.80721405       4.86223724      19.95723403        4      -0.00072296      -0.00919394       0.02556199
Pt       5.61442805       4.86223734      19.95723421        4       0.00252066      -0.00162398       0.01511775
Pt       8.42164144       4.86223725      19.95723437        4      -0.00029276      -0.00436573       0.01302325
Pt       1.40360728       0.81037258      22.29206792        3       0.00995495       0.05453219      -0.11212613
Pt       4.21082126       0.81037248      22.29206794        3      -0.01053812       0.05164967      -0.11149475
Pt       7.01803474       0.81037256      22.29206786        3      -0.00133324       0.00670612      -0.06886616
Pt       2.80721448       3.24149124      22.29206779        3       0.00175241      -0.08153500      -0.21879567
Pt       5.61442762       3.24149125      22.29206790        3      -0.03276411      -0.01836657      -0.08528622
Pt       8.42164155       3.24149130      22.29206809        3       0.03126394      -0.01759018      -0.08299673
Pt       4.21082091       5.67260997      22.29206801        3       0.00168318      -0.01475934      -0.01904568
Pt       7.01803488       5.67261037      22.29206781        3       0.00149825       0.00655879      -0.00831867
Pt       9.82524819       5.67261065      22.29206808        3       0.00303673      -0.02509640      -0.02036054
Pt      -0.00000056       1.62074567      24.58417371        2       0.03286541       0.01248614      -0.07672165
Pt       2.80721444       1.62074547      24.58417389        2      -0.00089984       0.04936331      -0.16024984
Pt       5.61442780       1.62074536      24.58417372        2      -0.03378967       0.00861186      -0.06889846
Pt       1.40360637       4.05186441      24.58417386        2      -0.16924603       0.13591175       0.27081078
Pt       4.21082088       4.05186402      24.58417378        2       0.15876153       0.12670176       0.27105439
Pt       7.01803505       4.05186404      24.58417403        2       0.00134041       0.07741009       0.16148640
Pt       2.80721282       6.48298342      24.58417366        2      -0.00485493      -0.00312827      -0.02959892
Pt       5.61442796       6.48298327      24.58417384        2       0.01397736      -0.13930558       0.15459201
Pt       8.42164224       6.48298339      24.58417376        2      -0.00942453      -0.13337138       0.14779790
Pt      -0.00201157       0.00340876      26.90697138        1       0.00293960       0.01116043      -0.00210646
Pt       2.80627870       0.07491950      26.90186206        1      -0.00044713      -0.03726994      -0.02578574
Pt       5.61439156       0.00336418      26.90872719        1      -0.00149064       0.00712810      -0.00048668
Pt       1.40453035       2.45024090      26.90868017        1       0.00304945      -0.00130028      -0.00051683
Pt       4.20958630       2.44994743      26.90931268        1      -0.00464121      -0.00109307      -0.00018804
Pt       7.01884674       2.38178260      26.89056062        1      -0.00165024       0.03282815       0.01071590
Pt       2.80685139       4.87578268      26.91243002        1      -0.00128043      -0.02670853      -0.01707951
Pt       5.60375022       4.86792813      27.06267987        1       0.02711441      -0.03385766      -0.00201808
Pt       8.43089034       4.86968658      27.06507373        1      -0.01412942      -0.03868836      -0.01250606
O        7.01768573       4.94167919      29.69932204        0      -0.00211881       0.00644311      -0.00939821
C        7.01732740       4.92515620      28.51111086        0      -0.00375592       0.00071899       0.00627623
