38
Lattice="8.421641763931781 0.0 0.0 4.2108208819658905 7.293355709136913 0.0 0.0 0.0 46.87624170604845" Properties=species:S:1:pos:R:3:tags:I:1:forces:R:3 charge=0 spin=0 energy=-202.87962150216808 free_energy=-202.87962150216808 stress="0.010213061235845089 1.570881431689486e-05 6.502392807306023e-06 1.570881431689486e-05 0.009602505713701248 -1.2826431884604972e-05 6.502392807306023e-06 -1.2826431884604972e-05 -0.00035308129736222327" pbc="T T T"
Pt      -0.00000000       0.00000021      19.95723433        4       0.00337573       0.00060852       0.01800953
Pt       2.80721396      -0.00000008      19.95723446        4      -0.00033600       0.00044821       0.02182770
Pt       5.61442779      -0.00000016      19.95723449        4      -0.00084274      -0.00158476       0.01997524
Pt       1.40360720       2.43111835      19.95723435        4      -0.02004563      -0.00046475      -0.00637515
Pt       4.21082080       2.43111834      19.95723443        4       0.01958059      -0.00156346      -0.00392747
Pt       7.01803483       2.43111844      19.95723431        4      -0.00085302       0.00454525       0.00694763
Pt       2.80721405       4.86223724      19.95723403        4      -0.00082773      -0.00870155       0.02541931
Pt       5.61442805       4.86223734      19.95723421        4       0.00241898      -0.00140569       0.01530481
Pt       8.42164144       4.86223725      19.95723437        4      -0.00038632      -0.00420671       0.01308489
Pt       1.40360728       0.81037258      22.29206792        3       0.01046236       0.05572861      -0.11289373
Pt       4.21082126       0.81037248      22.29206794        3      -0.01127738       0.05246902      -0.11196422
Pt       7.01803474       0.81037256      22.29206786        3      -0.00151528       0.00828905      -0.06872223
Pt       2.80721448       3.24149124      22.29206779        3       0.00175498      -0.08057711      -0.21869849
Pt       5.61442762       3.24149125      22.29206790        3      -0.03297332      -0.01690606      -0.08342034
Pt       8.42164155       3.24149130      22.29206809        3       0.03146829      -0.01591177      -0.08149171
Pt       4.21082091       5.67260997      22.29206801        3       0.00199466      -0.01268145      -0.01867262
Pt       7.01803488       5.67261037      22.29206781        3       0.00138732       0.00826200      -0.01014006
Pt       9.82524819       5.67261065      22.29206808        3       0.00229891      -0.02305909      -0.02016765
Pt      -0.00000056       1.62074567      24.58417371        2       0.03287638       0.00820417      -0.07127858
Pt       2.80721444       1.62074547      24.58417389        2      -0.00008060       0.04691291      -0.16422713
Pt       5.61442780       1.62074536      24.58417372        2      -0.03254377       0.00474944      -0.06288663
Pt       1.40360637       4.05186441      24.58417386        2      -0.17240177       0.12592162       0.26462144
Pt       4.21082088       4.05186402      24.58417378        2       0.16417645       0.11732263       0.26636446
Pt       7.01803505       4.05186404      24.58417403        2       0.00128193       0.07238327       0.15617864
Pt       2.80721282       6.48298342      24.58417366        2      -0.00385518      -0.00273359      -0.02677145
Pt       5.61442796       6.48298327      24.58417384        2       0.00719968      -0.14694250       0.15632504
Pt       8.42164224       6.48298339      24.58417376        2      -0.00200839      -0.13966627       0.14864369
Pt      -0.00282682      -0.00033076      26.90950475        1       0.01073263      -0.00301602      -0.01208648
Pt       2.80671848       0.06483521      26.89661845        1       0.00065244      -0.02929097      -0.01131560
Pt       5.61701303      -0.00042285      26.91116688        1      -0.01076233      -0.00563134      -0.01049728
Pt       1.40716965       2.44222223      26.91108558        1      -0.00551954      -0.00195792      -0.00779321
Pt       4.20832553       2.44183823      26.91155467        1       0.00387696      -0.00127414      -0.00724086
Pt       7.01964092       2.37910706      26.89128035        1      -0.00255399       0.01082667       0.00990559
Pt       2.80753068       4.86604427      26.90549543        1       0.00034982      -0.00410901       0.00479310
Pt       5.60487993       4.85836255      27.06353164        1       0.01847088      -0.01094126      -0.00673701
Pt       8.43208814       4.86046676      27.06454790        1      -0.01607571      -0.01659126      -0.00663147
O        7.01870853       4.89057661      29.70043922        0      -0.00104138       0.01934506      -0.00942675
C        7.01789997       4.89237606      28.51217404        0       0.00154137      -0.00679990       0.00596491
