38
Lattice="8.421641763931781 0.0 0.0 4.2108208819658905 7.293355709136913 0.0 0.0 0.0 46.87624170604845" Properties=species:S:1:pos:R:3:tags:I:1:forces:R:3 charge=0 spin=0 energy=-202.87924098611583 free_energy=-202.87924098611583 stress="0.01015608198940754 1.7430878870072775e-05 5.890570719202515e-06 1.7430878870072775e-05 0.00957204308360815 -2.6048332074424252e-05 5.890570719202515e-06 -2.6048332074424252e-05 -0.00042390712769702077" pbc="T T T"
Pt      -0.00000000       0.00000021      19.95723433        4       0.00318295       0.00098179       0.01795858
Pt       2.80721396      -0.00000008      19.95723446        4      -0.00048371       0.00115950       0.02175617
Pt       5.61442779      -0.00000016      19.95723449        4      -0.00067699      -0.00128445       0.01998705
Pt       1.40360720       2.43111835      19.95723435        4      -0.02058956      -0.00031084      -0.00685507
Pt       4.21082080       2.43111834      19.95723443        4       0.01992339      -0.00145883      -0.00421040
Pt       7.01803483       2.43111844      19.95723431        4      -0.00088484       0.00499528       0.00680719
Pt       2.80721405       4.86223724      19.95723403        4      -0.00085319      -0.00829373       0.02535388
Pt       5.61442805       4.86223734      19.95723421        4       0.00258645      -0.00079755       0.01520257
Pt       8.42164144       4.86223725      19.95723437        4      -0.00060742      -0.00357860       0.01293434
Pt       1.40360728       0.81037258      22.29206792        3       0.01007950       0.05721188      -0.11281686
Pt       4.21082126       0.81037248      22.29206794        3      -0.01075186       0.05394822      -0.11183253
Pt       7.01803474       0.81037256      22.29206786        3      -0.00140118       0.00987047      -0.06903616
Pt       2.80721448       3.24149124      22.29206779        3       0.00199962      -0.07990158      -0.21907967
Pt       5.61442762       3.24149125      22.29206790        3      -0.03320513      -0.01517627      -0.08299012
Pt       8.42164155       3.24149130      22.29206809        3       0.03190649      -0.01426226      -0.08109265
Pt       4.21082091       5.67260997      22.29206801        3       0.00190584      -0.01110274      -0.01871778
Pt       7.01803488       5.67261037      22.29206781        3       0.00146801       0.01059011      -0.01114055
Pt       9.82524819       5.67261065      22.29206808        3       0.00228995      -0.02135281      -0.02010739
Pt      -0.00000056       1.62074567      24.58417371        2       0.03719665      -0.00009246      -0.07006936
Pt       2.80721444       1.62074547      24.58417389        2      -0.00012054       0.05043112      -0.16166624
Pt       5.61442780       1.62074536      24.58417372        2      -0.03655284      -0.00399551      -0.06170737
Pt       1.40360637       4.05186441      24.58417386        2      -0.17388752       0.11784678       0.25721934
Pt       4.21082088       4.05186402      24.58417378        2       0.16510856       0.10906655       0.25943047
Pt       7.01803505       4.05186404      24.58417403        2       0.00151408       0.06235617       0.14011522
Pt       2.80721282       6.48298342      24.58417366        2      -0.00437264      -0.00210982      -0.02936886
Pt       5.61442796       6.48298327      24.58417384        2       0.00283944      -0.15174629       0.13915062
Pt       8.42164224       6.48298339      24.58417376        2       0.00255353      -0.14513265       0.13338001
Pt       0.00044508      -0.01106072      26.90958559        1      -0.00629550       0.01842098      -0.01392617
Pt       2.80636467       0.05695285      26.88976262        1       0.00258993      -0.00647893       0.01183846
Pt       5.61315900      -0.01067793      26.91157040        1       0.00653867       0.01384358      -0.01364969
Pt       1.40632104       2.43968324      26.91338855        1       0.00521795      -0.02903869      -0.01727499
Pt       4.20947007       2.43925567      26.91369461        1      -0.00740926      -0.02751183      -0.01660555
Pt       7.01977411       2.36834805      26.88911509        1      -0.00375430      -0.00098023       0.01749785
Pt       2.80722873       4.86090758      26.90172101        1       0.00188023      -0.00716868       0.01915894
Pt       5.60958557       4.84784508      27.05750043        1      -0.01688463       0.00953016       0.00823889
Pt       8.42786003       4.84889247      27.05904825        1       0.01689863       0.00913439       0.00726402
O        7.01848334       4.87229891      29.69754137        0      -0.00090153       0.03891476       0.01394031
C        7.01780760       4.88474127      28.50967901        0       0.00195282      -0.03652719      -0.00508637
