38
Lattice="8.421641763931781 0.0 0.0 4.2108208819658905 7.293355709136913 0.0 0.0 0.0 46.87624170604845" Properties=species:S:1:pos:R:3:tags:I:1:forces:R:3 charge=0 spin=0 energy=-202.87981128335704 free_energy=-202.87981128335704 stress="0.01014872919768095 1.7170938008348458e-05 6.280385605350602e-06 1.7170938008348458e-05 0.009566976688802242 -2.5184048354276456e-05 6.280385605350602e-06 -2.5184048354276456e-05 -0.00043795883539132774" pbc="T T T"
Pt      -0.00000000       0.00000021      19.95723433        4       0.00333627       0.00113077       0.01792323
Pt       2.80721396      -0.00000008      19.95723446        4      -0.00030737       0.00108937       0.02187182
Pt       5.61442779      -0.00000016      19.95723449        4      -0.00075137      -0.00098910       0.01984085
Pt       1.40360720       2.43111835      19.95723435        4      -0.02037531       0.00014465      -0.00679417
Pt       4.21082080       2.43111834      19.95723443        4       0.01983019      -0.00100463      -0.00436199
Pt       7.01803483       2.43111844      19.95723431        4      -0.00091663       0.00520919       0.00690668
Pt       2.80721405       4.86223724      19.95723403        4      -0.00093901      -0.00810151       0.02546197
Pt       5.61442805       4.86223734      19.95723421        4       0.00247830      -0.00092453       0.01515127
Pt       8.42164144       4.86223725      19.95723437        4      -0.00056344      -0.00373785       0.01293665
Pt       1.40360728       0.81037258      22.29206792        3       0.01076198       0.05830572      -0.11344981
Pt       4.21082126       0.81037248      22.29206794        3      -0.01142784       0.05486900      -0.11218900
Pt       7.01803474       0.81037256      22.29206786        3      -0.00146182       0.01078740      -0.06872032
Pt       2.80721448       3.24149124      22.29206779        3       0.00208157      -0.08004298      -0.21953218
Pt       5.61442762       3.24149125      22.29206790        3      -0.03295792      -0.01526926      -0.08304018
Pt       8.42164155       3.24149130      22.29206809        3       0.03181557      -0.01441162      -0.08087311
Pt       4.21082091       5.67260997      22.29206801        3       0.00262517      -0.01051988      -0.01683678
Pt       7.01803488       5.67261037      22.29206781        3       0.00171034       0.01041067      -0.01011447
Pt       9.82524819       5.67261065      22.29206808        3       0.00211669      -0.02076155      -0.01830863
Pt      -0.00000056       1.62074567      24.58417371        2       0.03052864       0.00442014      -0.08890145
Pt       2.80721444       1.62074547      24.58417389        2       0.00005344       0.04517988      -0.18823637
Pt       5.61442780       1.62074536      24.58417372        2      -0.03170920      -0.00045464      -0.08025085
Pt       1.40360637       4.05186441      24.58417386        2      -0.17099203       0.12562290       0.26350352
Pt       4.21082088       4.05186402      24.58417378        2       0.16243912       0.11687525       0.26495183
Pt       7.01803505       4.05186404      24.58417403        2       0.00113622       0.06694693       0.14908840
Pt       2.80721282       6.48298342      24.58417366        2      -0.00462755      -0.01696977      -0.03456377
Pt       5.61442796       6.48298327      24.58417384        2       0.00272433      -0.16285072       0.13629547
Pt       8.42164224       6.48298339      24.58417376        2       0.00223787      -0.15619913       0.12954827
Pt      -0.00187987      -0.00789951      26.90360048        1       0.00367485      -0.01107929       0.01047711
Pt       2.80646679       0.05262671      26.88766528        1       0.00029336      -0.01517617       0.01922485
Pt       5.61449396      -0.00896420      26.90578985        1      -0.00118287      -0.01043135       0.00937601
Pt       1.40717220       2.43351135      26.90605734        1      -0.00392008       0.00390368       0.01042845
Pt       4.20740800       2.43352642      26.90671617        1       0.00316050       0.00424589       0.01037306
Pt       7.01824463       2.36973507      26.88950750        1       0.00038643       0.01239562       0.02188562
Pt       2.80755872       4.85864240      26.90889229        1      -0.00005192      -0.00397043      -0.00853212
Pt       5.60720072       4.84807533      27.06280185        1       0.00193048      -0.00360694       0.00021488
Pt       8.43030814       4.84836844      27.06405428        1      -0.00295148      -0.00353762      -0.00059469
O        7.01840694       4.87252393      29.70210291        0       0.00006343       0.01247321      -0.01744156
C        7.01833218       4.87333848      28.51385321        0      -0.00024898       0.00602857       0.00728166
