38
Lattice="8.421641763931781 0.0 0.0 4.2108208819658905 7.293355709136913 0.0 0.0 0.0 46.87624170604845" Properties=species:S:1:pos:R:3:tags:I:1:forces:R:3 charge=0 spin=0 energy=-202.87981128335704 free_energy=-202.87981128335704 stress="0.010148740373551846 1.716884617053438e-05 6.2788712966721505e-06 1.716884617053438e-05 0.009566978551447392 -2.5184808691847138e-05 6.2788712966721505e-06 -2.5184808691847138e-05 -0.00043794914381578565" pbc="T T T"
Pt      -0.00000000       0.00000021      19.95723433        4       0.00333627       0.00113073       0.01792323
Pt       2.80721396      -0.00000008      19.95723446        4      -0.00030730       0.00108958       0.02187206
Pt       5.61442779      -0.00000016      19.95723449        4      -0.00075149      -0.00098887       0.01984070
Pt       1.40360720       2.43111835      19.95723435        4      -0.02037533       0.00014453      -0.00679404
Pt       4.21082080       2.43111834      19.95723443        4       0.01983016      -0.00100460      -0.00436188
Pt       7.01803483       2.43111844      19.95723431        4      -0.00091670       0.00520913       0.00690655
Pt       2.80721405       4.86223724      19.95723403        4      -0.00093905      -0.00810163       0.02546227
Pt       5.61442805       4.86223734      19.95723421        4       0.00247824      -0.00092455       0.01515142
Pt       8.42164144       4.86223725      19.95723437        4      -0.00056330      -0.00373793       0.01293686
Pt       1.40360728       0.81037258      22.29206792        3       0.01076171       0.05830547      -0.11344975
Pt       4.21082126       0.81037248      22.29206794        3      -0.01142807       0.05486860      -0.11218815
Pt       7.01803474       0.81037256      22.29206786        3      -0.00146202       0.01078742      -0.06872039
Pt       2.80721448       3.24149124      22.29206779        3       0.00208151      -0.08004275      -0.21953139
Pt       5.61442762       3.24149125      22.29206790        3      -0.03295716      -0.01526896      -0.08303945
Pt       8.42164155       3.24149130      22.29206809        3       0.03181557      -0.01441147      -0.08087362
Pt       4.21082091       5.67260997      22.29206801        3       0.00262485      -0.01052015      -0.01683691
Pt       7.01803488       5.67261037      22.29206781        3       0.00171034       0.01041076      -0.01011474
Pt       9.82524819       5.67261065      22.29206808        3       0.00211718      -0.02076184      -0.01830965
Pt      -0.00000056       1.62074567      24.58417371        2       0.03053012       0.00442039      -0.08890210
Pt       2.80721444       1.62074547      24.58417389        2       0.00005551       0.04517889      -0.18823406
Pt       5.61442780       1.62074536      24.58417372        2      -0.03171173      -0.00045341      -0.08024917
Pt       1.40360637       4.05186441      24.58417386        2      -0.17099066       0.12562150       0.26350185
Pt       4.21082088       4.05186402      24.58417378        2       0.16243877       0.11687258       0.26495406
Pt       7.01803505       4.05186404      24.58417403        2       0.00113504       0.06694619       0.14908981
Pt       2.80721282       6.48298342      24.58417366        2      -0.00462801      -0.01697101      -0.03456448
Pt       5.61442796       6.48298327      24.58417384        2       0.00272607      -0.16284896       0.13629949
Pt       8.42164224       6.48298339      24.58417376        2       0.00223598      -0.15619662       0.12955032
Pt      -0.00188080      -0.00789942      26.90360110        1       0.00368301      -0.01108196       0.01047775
Pt       2.80646679       0.05262761      26.88766631        1       0.00029286      -0.01518340       0.01921797
Pt       5.61449501      -0.00896424      26.90579009        1      -0.00118977      -0.01043443       0.00937510
Pt       1.40717290       2.43351087      26.90605713        1      -0.00392447       0.00390364       0.01042928
Pt       4.20740738       2.43352619      26.90671643        1       0.00316423       0.00424894       0.01036479
Pt       7.01824454       2.36973352      26.88950809        1       0.00038613       0.01240484       0.02188600
Pt       2.80755878       4.85864207      26.90889195        1      -0.00005159      -0.00397022      -0.00853195
Pt       5.60719921       4.84807514      27.06280117        1       0.00194062      -0.00360561       0.00021144
Pt       8.43030971       4.84836807      27.06405335        1      -0.00296623      -0.00353679      -0.00058905
O        7.01840678       4.87252495      29.70210023        0       0.00006545       0.01247181      -0.01743027
C        7.01833215       4.87333902      28.51385135        0      -0.00024703       0.00602992       0.00726995
