38
Lattice="8.421641763931781 0.0 0.0 4.2108208819658905 7.293355709136913 0.0 0.0 0.0 46.87624170604845" Properties=species:S:1:pos:R:3:tags:I:1:forces:R:3 charge=0 spin=0 energy=-202.87962531686534 free_energy=-202.87962531686534 stress="0.01021305937319994 1.571279608469922e-05 6.5029726101784036e-06 1.571279608469922e-05 0.00960248988121748 -1.2818606592190918e-05 6.5029726101784036e-06 -1.2818606592190918e-05 -0.00035315434797666967" pbc="T T T"
Pt      -0.00000000       0.00000021      19.95723433        4       0.00337566       0.00060841       0.01800941
Pt       2.80721396      -0.00000008      19.95723446        4      -0.00033615       0.00044821       0.02182761
Pt       5.61442779      -0.00000016      19.95723449        4      -0.00084263      -0.00158477       0.01997524
Pt       1.40360720       2.43111835      19.95723435        4      -0.02004561      -0.00046474      -0.00637541
Pt       4.21082080       2.43111834      19.95723443        4       0.01958057      -0.00156344      -0.00392779
Pt       7.01803483       2.43111844      19.95723431        4      -0.00085293       0.00454511       0.00694756
Pt       2.80721405       4.86223724      19.95723403        4      -0.00082790      -0.00870156       0.02541944
Pt       5.61442805       4.86223734      19.95723421        4       0.00241899      -0.00140556       0.01530492
Pt       8.42164144       4.86223725      19.95723437        4      -0.00038656      -0.00420671       0.01308482
Pt       1.40360728       0.81037258      22.29206792        3       0.01046248       0.05572866      -0.11289371
Pt       4.21082126       0.81037248      22.29206794        3      -0.01127716       0.05246892      -0.11196400
Pt       7.01803474       0.81037256      22.29206786        3      -0.00151524       0.00828917      -0.06872230
Pt       2.80721448       3.24149124      22.29206779        3       0.00175493      -0.08057678      -0.21869804
Pt       5.61442762       3.24149125      22.29206790        3      -0.03297345      -0.01690605      -0.08341995
Pt       8.42164155       3.24149130      22.29206809        3       0.03146882      -0.01591185      -0.08149244
Pt       4.21082091       5.67260997      22.29206801        3       0.00199465      -0.01268132      -0.01867284
Pt       7.01803488       5.67261037      22.29206781        3       0.00138741       0.00826202      -0.01014006
Pt       9.82524819       5.67261065      22.29206808        3       0.00229910      -0.02305905      -0.02016809
Pt      -0.00000056       1.62074567      24.58417371        2       0.03287829       0.00820393      -0.07128306
Pt       2.80721444       1.62074547      24.58417389        2      -0.00008067       0.04691304      -0.16422877
Pt       5.61442780       1.62074536      24.58417372        2      -0.03254605       0.00474876      -0.06289022
Pt       1.40360637       4.05186441      24.58417386        2      -0.17240207       0.12592210       0.26462254
Pt       4.21082088       4.05186402      24.58417378        2       0.16417684       0.11732281       0.26636639
Pt       7.01803505       4.05186404      24.58417403        2       0.00128185       0.07238475       0.15617724
Pt       2.80721282       6.48298342      24.58417366        2      -0.00385493      -0.00273366      -0.02677305
Pt       5.61442796       6.48298327      24.58417384        2       0.00719985      -0.14694297       0.15632585
Pt       8.42164224       6.48298339      24.58417376        2      -0.00200910      -0.13966654       0.14864458
Pt      -0.00282689      -0.00033025      26.90950471        1       0.01073356      -0.00302273      -0.01208610
Pt       2.80671826       0.06483551      26.89661823        1       0.00065492      -0.02929441      -0.01131583
Pt       5.61701317      -0.00042256      26.91116654        1      -0.01076346      -0.00563265      -0.01049607
Pt       1.40716954       2.44222205      26.91108537        1      -0.00551938      -0.00195242      -0.00779368
Pt       4.20832547       2.44183797      26.91155435        1       0.00387788      -0.00126815      -0.00724233
Pt       7.01964090       2.37910664      26.89127987        1      -0.00255512       0.01083201       0.00991223
Pt       2.80753070       4.86604429      26.90549519        1       0.00035196      -0.00411151       0.00479409
Pt       5.60488012       4.85836253      27.06353160        1       0.01847363      -0.01094059      -0.00673199
Pt       8.43208807       4.86046672      27.06454787        1      -0.01608344      -0.01659053      -0.00662473
O        7.01870868       4.89057631      29.70043974        0      -0.00104206       0.01934100      -0.00926079
C        7.01789997       4.89237612      28.51217621        0       0.00154275      -0.00680123       0.00578921
