38
Lattice="8.421641763931781 0.0 0.0 4.2108208819658905 7.293355709136913 0.0 0.0 0.0 46.87624170604845" Properties=species:S:1:pos:R:3:tags:I:1:forces:R:3 charge=0 spin=0 energy=-202.87962150216808 free_energy=-202.87962150216808 stress="0.01021304726600647 1.571038956171833e-05 6.504432349174749e-06 1.571038956171833e-05 0.00960248988121748 -1.2820882147934753e-05 6.504432349174749e-06 -1.2820882147934753e-05 -0.00035309913801029325" pbc="T T T"
Pt      -0.00000000       0.00000021      19.95723433        4       0.00337563       0.00060841       0.01800949
Pt       2.80721396      -0.00000008      19.95723446        4      -0.00033595       0.00044811       0.02182765
Pt       5.61442779      -0.00000016      19.95723449        4      -0.00084279      -0.00158475       0.01997526
Pt       1.40360720       2.43111835      19.95723435        4      -0.02004576      -0.00046465      -0.00637536
Pt       4.21082080       2.43111834      19.95723443        4       0.01958063      -0.00156338      -0.00392770
Pt       7.01803483       2.43111844      19.95723431        4      -0.00085305       0.00454514       0.00694761
Pt       2.80721405       4.86223724      19.95723403        4      -0.00082783      -0.00870158       0.02541937
Pt       5.61442805       4.86223734      19.95723421        4       0.00241910      -0.00140560       0.01530492
Pt       8.42164144       4.86223725      19.95723437        4      -0.00038654      -0.00420655       0.01308489
Pt       1.40360728       0.81037258      22.29206792        3       0.01046242       0.05572873      -0.11289356
Pt       4.21082126       0.81037248      22.29206794        3      -0.01127747       0.05246897      -0.11196420
Pt       7.01803474       0.81037256      22.29206786        3      -0.00151519       0.00828920      -0.06872249
Pt       2.80721448       3.24149124      22.29206779        3       0.00175504      -0.08057691      -0.21869844
Pt       5.61442762       3.24149125      22.29206790        3      -0.03297339      -0.01690611      -0.08342031
Pt       8.42164155       3.24149130      22.29206809        3       0.03146883      -0.01591204      -0.08149234
Pt       4.21082091       5.67260997      22.29206801        3       0.00199475      -0.01268145      -0.01867261
Pt       7.01803488       5.67261037      22.29206781        3       0.00138727       0.00826203      -0.01013993
Pt       9.82524819       5.67261065      22.29206808        3       0.00229890      -0.02305911      -0.02016771
Pt      -0.00000056       1.62074567      24.58417371        2       0.03287804       0.00820365      -0.07128155
Pt       2.80721444       1.62074547      24.58417389        2      -0.00008052       0.04691295      -0.16422787
Pt       5.61442780       1.62074536      24.58417372        2      -0.03254556       0.00474889      -0.06288922
Pt       1.40360637       4.05186441      24.58417386        2      -0.17240192       0.12592179       0.26462153
Pt       4.21082088       4.05186402      24.58417378        2       0.16417682       0.11732269       0.26636499
Pt       7.01803505       4.05186404      24.58417403        2       0.00128186       0.07238472       0.15617627
Pt       2.80721282       6.48298342      24.58417366        2      -0.00385484      -0.00273335      -0.02677309
Pt       5.61442796       6.48298327      24.58417384        2       0.00719941      -0.14694296       0.15632460
Pt       8.42164224       6.48298339      24.58417376        2      -0.00200859      -0.13966639       0.14864369
Pt      -0.00282664      -0.00033080      26.90950487        1       0.01073145      -0.00301893      -0.01208720
Pt       2.80671841       0.06483528      26.89661836        1       0.00065496      -0.02929142      -0.01131512
Pt       5.61701296      -0.00042286      26.91116683        1      -0.01076257      -0.00563161      -0.01049675
Pt       1.40716959       2.44222221      26.91108543        1      -0.00551978      -0.00195412      -0.00779425
Pt       4.20832553       2.44183820      26.91155459        1       0.00387800      -0.00127074      -0.00724239
Pt       7.01964103       2.37910714      26.89128013        1      -0.00255444       0.01082582       0.00991094
Pt       2.80753075       4.86604422      26.90549519        1       0.00035114      -0.00410866       0.00479519
Pt       5.60488018       4.85836259      27.06353211        1       0.01846579      -0.01094035      -0.00673779
Pt       8.43208784       4.86046684      27.06454790        1      -0.01607458      -0.01659000      -0.00663119
O        7.01870852       4.89057647      29.70043939        0      -0.00104228       0.01934233      -0.00941297
C        7.01789989       4.89237625      28.51217524        0       0.00154296      -0.00680283       0.00595749
