38
Lattice="8.421641763931781 0.0 0.0 4.2108208819658905 7.293355709136913 0.0 0.0 0.0 46.87624170604845" Properties=species:S:1:pos:R:3:tags:I:1:forces:R:3 charge=0 spin=0 energy=-202.87981223703136 free_energy=-202.87981223703136 stress="0.010148730129003525 1.7168811609735712e-05 6.2794042605673894e-06 1.7168811609735712e-05 0.009566973894834518 -2.5185488993884064e-05 6.2794042605673894e-06 -2.5185488993884064e-05 -0.00043789553456008434" pbc="T T T"
Pt      -0.00000000       0.00000021      19.95723433        4       0.00333625       0.00113068       0.01792300
Pt       2.80721396      -0.00000008      19.95723446        4      -0.00030741       0.00108948       0.02187195
Pt       5.61442779      -0.00000016      19.95723449        4      -0.00075125      -0.00098913       0.01984068
Pt       1.40360720       2.43111835      19.95723435        4      -0.02037540       0.00014481      -0.00679428
Pt       4.21082080       2.43111834      19.95723443        4       0.01983020      -0.00100424      -0.00436184
Pt       7.01803483       2.43111844      19.95723431        4      -0.00091665       0.00520916       0.00690653
Pt       2.80721405       4.86223724      19.95723403        4      -0.00093913      -0.00810176       0.02546214
Pt       5.61442805       4.86223734      19.95723421        4       0.00247828      -0.00092455       0.01515127
Pt       8.42164144       4.86223725      19.95723437        4      -0.00056339      -0.00373791       0.01293709
Pt       1.40360728       0.81037258      22.29206792        3       0.01076185       0.05830588      -0.11345001
Pt       4.21082126       0.81037248      22.29206794        3      -0.01142800       0.05486901      -0.11218905
Pt       7.01803474       0.81037256      22.29206786        3      -0.00146203       0.01078759      -0.06872103
Pt       2.80721448       3.24149124      22.29206779        3       0.00208117      -0.08004318      -0.21953262
Pt       5.61442762       3.24149125      22.29206790        3      -0.03295787      -0.01526927      -0.08303941
Pt       8.42164155       3.24149130      22.29206809        3       0.03181522      -0.01441128      -0.08087254
Pt       4.21082091       5.67260997      22.29206801        3       0.00262533      -0.01052010      -0.01683595
Pt       7.01803488       5.67261037      22.29206781        3       0.00171040       0.01041021      -0.01011398
Pt       9.82524819       5.67261065      22.29206808        3       0.00211660      -0.02076198      -0.01830844
Pt      -0.00000056       1.62074567      24.58417371        2       0.03052739       0.00441889      -0.08890396
Pt       2.80721444       1.62074547      24.58417389        2       0.00005537       0.04517992      -0.18823814
Pt       5.61442780       1.62074536      24.58417372        2      -0.03170953      -0.00045321      -0.08025336
Pt       1.40360637       4.05186441      24.58417386        2      -0.17099091       0.12562558       0.26350445
Pt       4.21082088       4.05186402      24.58417378        2       0.16243809       0.11687661       0.26495469
Pt       7.01803505       4.05186404      24.58417403        2       0.00113614       0.06694700       0.14908712
Pt       2.80721282       6.48298342      24.58417366        2      -0.00462597      -0.01697182      -0.03456342
Pt       5.61442796       6.48298327      24.58417384        2       0.00272408      -0.16285093       0.13629609
Pt       8.42164224       6.48298339      24.58417376        2       0.00223685      -0.15620044       0.12954667
Pt      -0.00187932      -0.00789965      26.90360024        1       0.00367338      -0.01108259       0.01047561
Pt       2.80646694       0.05262657      26.88766405        1       0.00029272      -0.01517496       0.01922443
Pt       5.61449335      -0.00896429      26.90578928        1      -0.00118193      -0.01043237       0.00938206
Pt       1.40717188       2.43351138      26.90605628        1      -0.00391652       0.00390436       0.01043564
Pt       4.20740842       2.43352667      26.90671605        1       0.00315801       0.00424768       0.01037166
Pt       7.01824458       2.36973533      26.88950647        1       0.00038581       0.01239352       0.02188470
Pt       2.80755858       4.85864242      26.90889329        1      -0.00004941      -0.00397142      -0.00853848
Pt       5.60720161       4.84807535      27.06280185        1       0.00192127      -0.00360675       0.00021459
Pt       8.43030756       4.84836850      27.06405438        1      -0.00294427      -0.00353718      -0.00059178
O        7.01840661       4.87252421      29.70210375        0       0.00006404       0.01247332      -0.01759287
C        7.01833195       4.87333842      28.51385220        0      -0.00024902       0.00603131       0.00743081
