38
Lattice="8.421641763931781 0.0 0.0 4.2108208819658905 7.293355709136913 0.0 0.0 0.0 46.87624170604845" Properties=species:S:1:pos:R:3:tags:I:1:forces:R:3 charge=0 spin=0 energy=-202.87924003244152 free_energy=-202.87924003244152 stress="0.010156083852052689 1.7430893421988003e-05 5.892755325476173e-06 1.7430893421988003e-05 0.009572041220963001 -2.60505112237297e-05 5.892755325476173e-06 -2.60505112237297e-05 -0.00042390619637444615" pbc="T T T"
Pt      -0.00000000       0.00000021      19.95723433        4       0.00318299       0.00098181       0.01795869
Pt       2.80721396      -0.00000008      19.95723446        4      -0.00048371       0.00115969       0.02175639
Pt       5.61442779      -0.00000016      19.95723449        4      -0.00067695      -0.00128435       0.01998712
Pt       1.40360720       2.43111835      19.95723435        4      -0.02058954      -0.00031082      -0.00685520
Pt       4.21082080       2.43111834      19.95723443        4       0.01992343      -0.00145872      -0.00421038
Pt       7.01803483       2.43111844      19.95723431        4      -0.00088495       0.00499538       0.00680715
Pt       2.80721405       4.86223724      19.95723403        4      -0.00085303      -0.00829380       0.02535394
Pt       5.61442805       4.86223734      19.95723421        4       0.00258642      -0.00079756       0.01520267
Pt       8.42164144       4.86223725      19.95723437        4      -0.00060741      -0.00357869       0.01293406
Pt       1.40360728       0.81037258      22.29206792        3       0.01007950       0.05721179      -0.11281679
Pt       4.21082126       0.81037248      22.29206794        3      -0.01075193       0.05394844      -0.11183292
Pt       7.01803474       0.81037256      22.29206786        3      -0.00140120       0.00987047      -0.06903587
Pt       2.80721448       3.24149124      22.29206779        3       0.00199966      -0.07990155      -0.21907978
Pt       5.61442762       3.24149125      22.29206790        3      -0.03320512      -0.01517607      -0.08298985
Pt       8.42164155       3.24149130      22.29206809        3       0.03190653      -0.01426212      -0.08109275
Pt       4.21082091       5.67260997      22.29206801        3       0.00190580      -0.01110299      -0.01871763
Pt       7.01803488       5.67261037      22.29206781        3       0.00146798       0.01059019      -0.01114055
Pt       9.82524819       5.67261065      22.29206808        3       0.00229020      -0.02135310      -0.02010692
Pt      -0.00000056       1.62074567      24.58417371        2       0.03719671      -0.00009271      -0.07006919
Pt       2.80721444       1.62074547      24.58417389        2      -0.00012090       0.05043119      -0.16166593
Pt       5.61442780       1.62074536      24.58417372        2      -0.03655282      -0.00399576      -0.06170731
Pt       1.40360637       4.05186441      24.58417386        2      -0.17388768       0.11784726       0.25721970
Pt       4.21082088       4.05186402      24.58417378        2       0.16510847       0.10906667       0.25943047
Pt       7.01803505       4.05186404      24.58417403        2       0.00151370       0.06235606       0.14011461
Pt       2.80721282       6.48298342      24.58417366        2      -0.00437359      -0.00211013      -0.02936724
Pt       5.61442796       6.48298327      24.58417384        2       0.00283937      -0.15174617       0.13915068
Pt       8.42164224       6.48298339      24.58417376        2       0.00255392      -0.14513278       0.13338020
Pt       0.00044517      -0.01106077      26.90958561        1      -0.00629570       0.01842333      -0.01392683
Pt       2.80636470       0.05695278      26.88976269        1       0.00258913      -0.00647683       0.01183827
Pt       5.61315902      -0.01067783      26.91157032        1       0.00653827       0.01384297      -0.01365015
Pt       1.40632101       2.43968336      26.91338868        1       0.00521752      -0.02903999      -0.01727588
Pt       4.20947008       2.43925575      26.91369462        1      -0.00740983      -0.02751226      -0.01660551
Pt       7.01977414       2.36834818      26.88911511        1      -0.00375444      -0.00098153       0.01749766
Pt       2.80722891       4.86090752      26.90172104        1       0.00187904      -0.00716879       0.01915858
Pt       5.60958562       4.84784506      27.05750037        1      -0.01688740       0.00952959       0.00823971
Pt       8.42785937       4.84889249      27.05904832        1       0.01690933       0.00913445       0.00725890
O        7.01848344       4.87229880      29.69754159        0      -0.00090262       0.03891446       0.01394428
C        7.01780783       4.88474120      28.50967948        0       0.00195079      -0.03652669      -0.00508650
