38
Lattice="8.421641763931781 0.0 0.0 4.2108208819658905 7.293355709136913 0.0 0.0 0.0 46.87624170604845" Properties=species:S:1:pos:R:3:tags:I:1:forces:R:3 charge=0 spin=0 energy=-202.87981032968273 free_energy=-202.87981032968273 stress="0.010148733854293823 1.7166972611448728e-05 6.278837645368185e-06 1.7166972611448728e-05 0.009566973894834518 -2.5183981051668525e-05 6.278837645368185e-06 -2.5183981051668525e-05 -0.00043796433601528406" pbc="T T T"
Pt      -0.00000000       0.00000021      19.95723433        4       0.00333629       0.00113070       0.01792317
Pt       2.80721396      -0.00000008      19.95723446        4      -0.00030727       0.00108962       0.02187184
Pt       5.61442779      -0.00000016      19.95723449        4      -0.00075148      -0.00098903       0.01984081
Pt       1.40360720       2.43111835      19.95723435        4      -0.02037524       0.00014479      -0.00679423
Pt       4.21082080       2.43111834      19.95723443        4       0.01983016      -0.00100458      -0.00436190
Pt       7.01803483       2.43111844      19.95723431        4      -0.00091683       0.00520905       0.00690643
Pt       2.80721405       4.86223724      19.95723403        4      -0.00093907      -0.00810180       0.02546214
Pt       5.61442805       4.86223734      19.95723421        4       0.00247822      -0.00092465       0.01515144
Pt       8.42164144       4.86223725      19.95723437        4      -0.00056318      -0.00373775       0.01293690
Pt       1.40360728       0.81037258      22.29206792        3       0.01076176       0.05830554      -0.11344971
Pt       4.21082126       0.81037248      22.29206794        3      -0.01142810       0.05486893      -0.11218875
Pt       7.01803474       0.81037256      22.29206786        3      -0.00146212       0.01078756      -0.06872033
Pt       2.80721448       3.24149124      22.29206779        3       0.00208146      -0.08004274      -0.21953192
Pt       5.61442762       3.24149125      22.29206790        3      -0.03295733      -0.01526888      -0.08303911
Pt       8.42164155       3.24149130      22.29206809        3       0.03181531      -0.01441160      -0.08087353
Pt       4.21082091       5.67260997      22.29206801        3       0.00262506      -0.01052018      -0.01683710
Pt       7.01803488       5.67261037      22.29206781        3       0.00170997       0.01041070      -0.01011531
Pt       9.82524819       5.67261065      22.29206808        3       0.00211685      -0.02076162      -0.01830891
Pt      -0.00000056       1.62074567      24.58417371        2       0.03053006       0.00442072      -0.08890241
Pt       2.80721444       1.62074547      24.58417389        2       0.00005545       0.04518095      -0.18823773
Pt       5.61442780       1.62074536      24.58417372        2      -0.03171193      -0.00045323      -0.08024940
Pt       1.40360637       4.05186441      24.58417386        2      -0.17099161       0.12562191       0.26350272
Pt       4.21082088       4.05186402      24.58417378        2       0.16243888       0.11687300       0.26495448
Pt       7.01803505       4.05186404      24.58417403        2       0.00113636       0.06694645       0.14909080
Pt       2.80721282       6.48298342      24.58417366        2      -0.00462797      -0.01697141      -0.03456474
Pt       5.61442796       6.48298327      24.58417384        2       0.00272487      -0.16285011       0.13629793
Pt       8.42164224       6.48298339      24.58417376        2       0.00223763      -0.15619868       0.12955050
Pt      -0.00188090      -0.00789963      26.90360076        1       0.00368396      -0.01108206       0.01047779
Pt       2.80646699       0.05262788      26.88766552        1       0.00029379      -0.01518671       0.01922462
Pt       5.61449515      -0.00896411      26.90579008        1      -0.00119469      -0.01043569       0.00937608
Pt       1.40717299       2.43351068      26.90605688        1      -0.00392575       0.00390501       0.01042998
Pt       4.20740716       2.43352619      26.90671636        1       0.00316868       0.00425104       0.01036450
Pt       7.01824453       2.36973340      26.88950792        1       0.00038597       0.01240745       0.02188621
Pt       2.80755865       4.85864215      26.90889220        1      -0.00004915      -0.00397097      -0.00853147
Pt       5.60720018       4.84807524      27.06280090        1       0.00193166      -0.00360801       0.00020627
Pt       8.43030896       4.84836820      27.06405371        1      -0.00295716      -0.00353642      -0.00060206
O        7.01840664       4.87252491      29.70210054        0       0.00006348       0.01247099      -0.01742476
C        7.01833199       4.87333892      28.51385138        0      -0.00024707       0.00603149       0.00727865
