38
Lattice="8.421641763931781 0.0 0.0 4.2108208819658905 7.293355709136913 0.0 0.0 0.0 46.87624170604845" Properties=species:S:1:pos:R:3:tags:I:1:forces:R:3 charge=0 spin=0 energy=-202.87923812509288 free_energy=-202.87923812509288 stress="0.010156075470149517 1.7430227671866305e-05 5.891316050110618e-06 1.7430227671866305e-05 0.009572037495672703 -2.605111694720108e-05 5.891316050110618e-06 -2.605111694720108e-05 -0.00042385279084555805" pbc="T T T"
Pt      -0.00000000       0.00000021      19.95723433        4       0.00318301       0.00098179       0.01795856
Pt       2.80721396      -0.00000008      19.95723446        4      -0.00048364       0.00115961       0.02175600
Pt       5.61442779      -0.00000016      19.95723449        4      -0.00067706      -0.00128433       0.01998703
Pt       1.40360720       2.43111835      19.95723435        4      -0.02058955      -0.00031081      -0.00685509
Pt       4.21082080       2.43111834      19.95723443        4       0.01992353      -0.00145888      -0.00421040
Pt       7.01803483       2.43111844      19.95723431        4      -0.00088501       0.00499537       0.00680728
Pt       2.80721405       4.86223724      19.95723403        4      -0.00085292      -0.00829366       0.02535388
Pt       5.61442805       4.86223734      19.95723421        4       0.00258668      -0.00079766       0.01520265
Pt       8.42164144       4.86223725      19.95723437        4      -0.00060730      -0.00357875       0.01293417
Pt       1.40360728       0.81037258      22.29206792        3       0.01007947       0.05721185      -0.11281678
Pt       4.21082126       0.81037248      22.29206794        3      -0.01075184       0.05394848      -0.11183286
Pt       7.01803474       0.81037256      22.29206786        3      -0.00140114       0.00987049      -0.06903596
Pt       2.80721448       3.24149124      22.29206779        3       0.00199974      -0.07990150      -0.21908012
Pt       5.61442762       3.24149125      22.29206790        3      -0.03320519      -0.01517621      -0.08299018
Pt       8.42164155       3.24149130      22.29206809        3       0.03190649      -0.01426217      -0.08109272
Pt       4.21082091       5.67260997      22.29206801        3       0.00190538      -0.01110277      -0.01871715
Pt       7.01803488       5.67261037      22.29206781        3       0.00146776       0.01059018      -0.01114071
Pt       9.82524819       5.67261065      22.29206808        3       0.00229017      -0.02135288      -0.02010716
Pt      -0.00000056       1.62074567      24.58417371        2       0.03719623      -0.00009260      -0.07006826
Pt       2.80721444       1.62074547      24.58417389        2      -0.00012103       0.05043098      -0.16166523
Pt       5.61442780       1.62074536      24.58417372        2      -0.03655257      -0.00399590      -0.06170709
Pt       1.40360637       4.05186441      24.58417386        2      -0.17388701       0.11784667       0.25721833
Pt       4.21082088       4.05186402      24.58417378        2       0.16510801       0.10906609       0.25942984
Pt       7.01803505       4.05186404      24.58417403        2       0.00151418       0.06235620       0.14011449
Pt       2.80721282       6.48298342      24.58417366        2      -0.00437352      -0.00210942      -0.02936773
Pt       5.61442796       6.48298327      24.58417384        2       0.00283940      -0.15174603       0.13914999
Pt       8.42164224       6.48298339      24.58417376        2       0.00255312      -0.14513274       0.13337921
Pt       0.00044503      -0.01106075      26.90958567        1      -0.00629743       0.01842466      -0.01392732
Pt       2.80636450       0.05695243      26.88976291        1       0.00258992      -0.00647536       0.01183856
Pt       5.61315887      -0.01067804      26.91157034        1       0.00654318       0.01384411      -0.01365041
Pt       1.40632092       2.43968339      26.91338860        1       0.00521776      -0.02904148      -0.01727578
Pt       4.20947013       2.43925566      26.91369469        1      -0.00741063      -0.02751245      -0.01660612
Pt       7.01977416       2.36834846      26.88911525        1      -0.00375381      -0.00098424       0.01749779
Pt       2.80722899       4.86090755      26.90172113        1       0.00187923      -0.00716857       0.01915892
Pt       5.60958561       4.84784514      27.05750006        1      -0.01689167       0.00952923       0.00823319
Pt       8.42786009       4.84889260      27.05904776        1       0.01690587       0.00913400       0.00725791
O        7.01848327       4.87229883      29.69754190        0      -0.00090182       0.03891684       0.01379053
C        7.01780764       4.88474116      28.50967762        0       0.00195380      -0.03652800      -0.00492128
