38
Lattice="8.421641763931781 0.0 0.0 4.2108208819658905 7.293355709136913 0.0 0.0 0.0 46.87624170604845" Properties=species:S:1:pos:R:3:tags:I:1:forces:R:3 charge=0 spin=0 energy=-202.8796224558424 free_energy=-202.8796224558424 stress="0.010213056579232216 1.5712888853158802e-05 6.502826181531418e-06 1.5712888853158802e-05 0.009602508507668972 -1.282170615013456e-05 6.502826181531418e-06 -1.282170615013456e-05 -0.00035313935950398445" pbc="T T T"
Pt      -0.00000000       0.00000021      19.95723433        4       0.00337561       0.00060836       0.01800962
Pt       2.80721396      -0.00000008      19.95723446        4      -0.00033615       0.00044811       0.02182755
Pt       5.61442779      -0.00000016      19.95723449        4      -0.00084262      -0.00158464       0.01997530
Pt       1.40360720       2.43111835      19.95723435        4      -0.02004584      -0.00046463      -0.00637534
Pt       4.21082080       2.43111834      19.95723443        4       0.01958072      -0.00156348      -0.00392770
Pt       7.01803483       2.43111844      19.95723431        4      -0.00085311       0.00454516       0.00694778
Pt       2.80721405       4.86223724      19.95723403        4      -0.00082783      -0.00870139       0.02541942
Pt       5.61442805       4.86223734      19.95723421        4       0.00241910      -0.00140564       0.01530467
Pt       8.42164144       4.86223725      19.95723437        4      -0.00038663      -0.00420662       0.01308487
Pt       1.40360728       0.81037258      22.29206792        3       0.01046273       0.05572877      -0.11289334
Pt       4.21082126       0.81037248      22.29206794        3      -0.01127717       0.05246895      -0.11196430
Pt       7.01803474       0.81037256      22.29206786        3      -0.00151531       0.00828908      -0.06872202
Pt       2.80721448       3.24149124      22.29206779        3       0.00175509      -0.08057678      -0.21869785
Pt       5.61442762       3.24149125      22.29206790        3      -0.03297323      -0.01690597      -0.08341984
Pt       8.42164155       3.24149130      22.29206809        3       0.03146888      -0.01591180      -0.08149268
Pt       4.21082091       5.67260997      22.29206801        3       0.00199468      -0.01268126      -0.01867274
Pt       7.01803488       5.67261037      22.29206781        3       0.00138761       0.00826199      -0.01014036
Pt       9.82524819       5.67261065      22.29206808        3       0.00229854      -0.02305905      -0.02016857
Pt      -0.00000056       1.62074567      24.58417371        2       0.03287629       0.00820293      -0.07127726
Pt       2.80721444       1.62074547      24.58417389        2      -0.00008121       0.04691249      -0.16422828
Pt       5.61442780       1.62074536      24.58417372        2      -0.03254338       0.00474927      -0.06288690
Pt       1.40360637       4.05186441      24.58417386        2      -0.17240283       0.12592238       0.26462308
Pt       4.21082088       4.05186402      24.58417378        2       0.16417737       0.11732298       0.26636663
Pt       7.01803505       4.05186404      24.58417403        2       0.00128162       0.07238311       0.15617819
Pt       2.80721282       6.48298342      24.58417366        2      -0.00385338      -0.00273277      -0.02676944
Pt       5.61442796       6.48298327      24.58417384        2       0.00719764      -0.14694239       0.15632701
Pt       8.42164224       6.48298339      24.58417376        2      -0.00200817      -0.13966654       0.14864391
Pt      -0.00282705      -0.00033030      26.90950536        1       0.01073134      -0.00301985      -0.01209223
Pt       2.80671846       0.06483504      26.89661823        1       0.00065411      -0.02929137      -0.01131511
Pt       5.61701314      -0.00042267      26.91116684        1      -0.01076143      -0.00563198      -0.01049688
Pt       1.40716976       2.44222200      26.91108527        1      -0.00552103      -0.00195398      -0.00779415
Pt       4.20832529       2.44183788      26.91155485        1       0.00387811      -0.00127042      -0.00724080
Pt       7.01964098       2.37910712      26.89128026        1      -0.00255431       0.01082578       0.00990531
Pt       2.80753074       4.86604419      26.90549540        1       0.00035008      -0.00410823       0.00479231
Pt       5.60488068       4.85836264      27.06353169        1       0.01846548      -0.01094055      -0.00673487
Pt       8.43208738       4.86046688      27.06454770        1      -0.01607203      -0.01659036      -0.00662983
O        7.01870866       4.89057647      29.70044017        0      -0.00104075       0.01934368      -0.00926751
C        7.01789993       4.89237634      28.51217638        0       0.00154154      -0.00680346       0.00580210
