38
Lattice="8.421641763931781 0.0 0.0 4.2108208819658905 7.293355709136913 0.0 0.0 0.0 46.87624170604845" Properties=species:S:1:pos:R:3:tags:I:1:forces:R:3 charge=0 spin=0 energy=-202.87981032968273 free_energy=-202.87981032968273 stress="0.010148738510906696 1.7168698832392693e-05 6.28112320555374e-06 1.7168698832392693e-05 0.009566985070705414 -2.518547626095824e-05 6.28112320555374e-06 -2.518547626095824e-05 -0.0004379505116958171" pbc="T T T"
Pt      -0.00000000       0.00000021      19.95723433        4       0.00333638       0.00113071       0.01792328
Pt       2.80721396      -0.00000008      19.95723446        4      -0.00030747       0.00108947       0.02187191
Pt       5.61442779      -0.00000016      19.95723449        4      -0.00075126      -0.00098914       0.01984081
Pt       1.40360720       2.43111835      19.95723435        4      -0.02037521       0.00014461      -0.00679402
Pt       4.21082080       2.43111834      19.95723443        4       0.01983032      -0.00100456      -0.00436190
Pt       7.01803483       2.43111844      19.95723431        4      -0.00091667       0.00520923       0.00690675
Pt       2.80721405       4.86223724      19.95723403        4      -0.00093914      -0.00810150       0.02546212
Pt       5.61442805       4.86223734      19.95723421        4       0.00247839      -0.00092456       0.01515127
Pt       8.42164144       4.86223725      19.95723437        4      -0.00056331      -0.00373783       0.01293680
Pt       1.40360728       0.81037258      22.29206792        3       0.01076160       0.05830590      -0.11344990
Pt       4.21082126       0.81037248      22.29206794        3      -0.01142804       0.05486891      -0.11218922
Pt       7.01803474       0.81037256      22.29206786        3      -0.00146211       0.01078758      -0.06872097
Pt       2.80721448       3.24149124      22.29206779        3       0.00208125      -0.08004318      -0.21953234
Pt       5.61442762       3.24149125      22.29206790        3      -0.03295772      -0.01526922      -0.08304016
Pt       8.42164155       3.24149130      22.29206809        3       0.03181499      -0.01441129      -0.08087225
Pt       4.21082091       5.67260997      22.29206801        3       0.00262505      -0.01052001      -0.01683635
Pt       7.01803488       5.67261037      22.29206781        3       0.00171023       0.01041038      -0.01011395
Pt       9.82524819       5.67261065      22.29206808        3       0.00211649      -0.02076175      -0.01830844
Pt      -0.00000056       1.62074567      24.58417371        2       0.03052820       0.00441945      -0.08890121
Pt       2.80721444       1.62074547      24.58417389        2       0.00005421       0.04518028      -0.18823545
Pt       5.61442780       1.62074536      24.58417372        2      -0.03170896      -0.00045514      -0.08025008
Pt       1.40360637       4.05186441      24.58417386        2      -0.17099032       0.12562437       0.26350659
Pt       4.21082088       4.05186402      24.58417378        2       0.16243745       0.11687619       0.26495397
Pt       7.01803505       4.05186404      24.58417403        2       0.00113621       0.06694687       0.14908685
Pt       2.80721282       6.48298342      24.58417366        2      -0.00462777      -0.01697158      -0.03455815
Pt       5.61442796       6.48298327      24.58417384        2       0.00272410      -0.16285053       0.13629569
Pt       8.42164224       6.48298339      24.58417376        2       0.00223855      -0.15619922       0.12954870
Pt      -0.00187942      -0.00789938      26.90360070        1       0.00367164      -0.01107975       0.01047624
Pt       2.80646683       0.05262638      26.88766466        1       0.00029414      -0.01517349       0.01922414
Pt       5.61449352      -0.00896417      26.90578974        1      -0.00118080      -0.01043170       0.00937474
Pt       1.40717181       2.43351125      26.90605673        1      -0.00391672       0.00390274       0.01042928
Pt       4.20740831       2.43352674      26.90671629        1       0.00315787       0.00424721       0.01037122
Pt       7.01824466       2.36973563      26.88950689        1       0.00038539       0.01239028       0.02188391
Pt       2.80755881       4.85864228      26.90889315        1      -0.00005202      -0.00396843      -0.00853927
Pt       5.60720101       4.84807545      27.06280199        1       0.00192420      -0.00360689       0.00021290
Pt       8.43030757       4.84836844      27.06405418        1      -0.00294064      -0.00353648      -0.00059786
O        7.01840675       4.87252371      29.70210360        0       0.00006259       0.01247127      -0.01743651
C        7.01833232       4.87333844      28.51385320        0      -0.00025129       0.00603109       0.00728102
