38
Lattice="8.421641763931781 0.0 0.0 4.2108208819658905 7.293355709136913 0.0 0.0 0.0 46.87624170604845" Properties=species:S:1:pos:R:3:tags:I:1:forces:R:3 charge=0 spin=0 energy=-202.87962150216808 free_energy=-202.87962150216808 stress="0.010213060304522514 1.571484244777821e-05 6.501418283733074e-06 1.571484244777821e-05 0.009602503851056099 -1.2822925782529637e-05 6.501418283733074e-06 -1.2822925782529637e-05 -0.0003530861285980791" pbc="T T T"
Pt      -0.00000000       0.00000021      19.95723433        4       0.00337549       0.00060841       0.01800960
Pt       2.80721396      -0.00000008      19.95723446        4      -0.00033610       0.00044802       0.02182778
Pt       5.61442779      -0.00000016      19.95723449        4      -0.00084268      -0.00158494       0.01997511
Pt       1.40360720       2.43111835      19.95723435        4      -0.02004578      -0.00046472      -0.00637522
Pt       4.21082080       2.43111834      19.95723443        4       0.01958052      -0.00156339      -0.00392762
Pt       7.01803483       2.43111844      19.95723431        4      -0.00085300       0.00454513       0.00694771
Pt       2.80721405       4.86223724      19.95723403        4      -0.00082782      -0.00870138       0.02541940
Pt       5.61442805       4.86223734      19.95723421        4       0.00241914      -0.00140556       0.01530498
Pt       8.42164144       4.86223725      19.95723437        4      -0.00038657      -0.00420658       0.01308497
Pt       1.40360728       0.81037258      22.29206792        3       0.01046264       0.05572860      -0.11289369
Pt       4.21082126       0.81037248      22.29206794        3      -0.01127730       0.05246884      -0.11196460
Pt       7.01803474       0.81037256      22.29206786        3      -0.00151473       0.00828903      -0.06872194
Pt       2.80721448       3.24149124      22.29206779        3       0.00175500      -0.08057710      -0.21869846
Pt       5.61442762       3.24149125      22.29206790        3      -0.03297338      -0.01690570      -0.08342002
Pt       8.42164155       3.24149130      22.29206809        3       0.03146876      -0.01591186      -0.08149231
Pt       4.21082091       5.67260997      22.29206801        3       0.00199492      -0.01268128      -0.01867285
Pt       7.01803488       5.67261037      22.29206781        3       0.00138772       0.00826236      -0.01013966
Pt       9.82524819       5.67261065      22.29206808        3       0.00229912      -0.02305916      -0.02016786
Pt      -0.00000056       1.62074567      24.58417371        2       0.03287638       0.00820400      -0.07127984
Pt       2.80721444       1.62074547      24.58417389        2      -0.00008122       0.04691368      -0.16422737
Pt       5.61442780       1.62074536      24.58417372        2      -0.03254393       0.00474929      -0.06288736
Pt       1.40360637       4.05186441      24.58417386        2      -0.17240153       0.12592149       0.26462203
Pt       4.21082088       4.05186402      24.58417378        2       0.16417608       0.11732249       0.26636609
Pt       7.01803505       4.05186404      24.58417403        2       0.00128196       0.07238342       0.15617862
Pt       2.80721282       6.48298342      24.58417366        2      -0.00385570      -0.00273314      -0.02677056
Pt       5.61442796       6.48298327      24.58417384        2       0.00719973      -0.14694272       0.15632559
Pt       8.42164224       6.48298339      24.58417376        2      -0.00200907      -0.13966650       0.14864402
Pt      -0.00282652      -0.00033053      26.90950454        1       0.01073084      -0.00301747      -0.01208665
Pt       2.80671844       0.06483557      26.89661817        1       0.00065333      -0.02929235      -0.01131598
Pt       5.61701268      -0.00042288      26.91116652        1      -0.01075857      -0.00563299      -0.01049847
Pt       1.40716930       2.44222220      26.91108515        1      -0.00551554      -0.00195404      -0.00779457
Pt       4.20832571       2.44183813      26.91155434        1       0.00387352      -0.00127112      -0.00724080
Pt       7.01964092       2.37910648      26.89128021        1      -0.00255600       0.01082843       0.00990458
Pt       2.80753066       4.86604432      26.90549523        1       0.00035100      -0.00411212       0.00479348
Pt       5.60488020       4.85836251      27.06353243        1       0.01846633      -0.01094145      -0.00673859
Pt       8.43208784       4.86046679      27.06454904        1      -0.01607592      -0.01659118      -0.00663152
O        7.01870882       4.89057695      29.70043861        0      -0.00104018       0.01934176      -0.00942012
C        7.01789987       4.89237550      28.51217482        0       0.00154264      -0.00679816       0.00596215
