38
Lattice="8.421641763931781 0.0 0.0 4.2108208819658905 7.293355709136913 0.0 0.0 0.0 46.87624170604845" Properties=species:S:1:pos:R:3:tags:I:1:forces:R:3 charge=0 spin=0 energy=-202.87921428323497 free_energy=-202.87921428323497 stress="0.01022192370146513 1.377885837428039e-05 9.205362403008621e-06 1.377885837428039e-05 0.009590741246938705 6.719925750076072e-06 9.205362403008621e-06 6.719925750076072e-06 -0.00035280216252431273" pbc="T T T"
Pt      -0.00000000       0.00000021      19.95723433        4       0.00341836       0.00007056       0.01776429
Pt       2.80721396      -0.00000008      19.95723446        4      -0.00020368       0.00011552       0.02179203
Pt       5.61442779      -0.00000016      19.95723449        4      -0.00061844      -0.00221795       0.01975542
Pt       1.40360720       2.43111835      19.95723435        4      -0.01978883      -0.00100835      -0.00631279
Pt       4.21082080       2.43111834      19.95723443        4       0.01951211      -0.00209926      -0.00384297
Pt       7.01803483       2.43111844      19.95723431        4      -0.00069787       0.00418302       0.00725299
Pt       2.80721405       4.86223724      19.95723403        4      -0.00072300      -0.00919387       0.02556178
Pt       5.61442805       4.86223734      19.95723421        4       0.00252073      -0.00162384       0.01511790
Pt       8.42164144       4.86223725      19.95723437        4      -0.00029282      -0.00436542       0.01302325
Pt       1.40360728       0.81037258      22.29206792        3       0.00995473       0.05453212      -0.11212604
Pt       4.21082126       0.81037248      22.29206794        3      -0.01053836       0.05164981      -0.11149526
Pt       7.01803474       0.81037256      22.29206786        3      -0.00133348       0.00670592      -0.06886601
Pt       2.80721448       3.24149124      22.29206779        3       0.00175244      -0.08153506      -0.21879585
Pt       5.61442762       3.24149125      22.29206790        3      -0.03276423      -0.01836677      -0.08528614
Pt       8.42164155       3.24149130      22.29206809        3       0.03126352      -0.01759053      -0.08299742
Pt       4.21082091       5.67260997      22.29206801        3       0.00168303      -0.01475920      -0.01904588
Pt       7.01803488       5.67261037      22.29206781        3       0.00149812       0.00655870      -0.00831831
Pt       9.82524819       5.67261065      22.29206808        3       0.00303655      -0.02509648      -0.02036042
Pt      -0.00000056       1.62074567      24.58417371        2       0.03286563       0.01248614      -0.07672141
Pt       2.80721444       1.62074547      24.58417389        2      -0.00089923       0.04936355      -0.16024885
Pt       5.61442780       1.62074536      24.58417372        2      -0.03378931       0.00861190      -0.06889743
Pt       1.40360637       4.05186441      24.58417386        2      -0.16924720       0.13591340       0.27081379
Pt       4.21082088       4.05186402      24.58417378        2       0.15876317       0.12670188       0.27105600
Pt       7.01803505       4.05186404      24.58417403        2       0.00134055       0.07741107       0.16148990
Pt       2.80721282       6.48298342      24.58417366        2      -0.00485518      -0.00312795      -0.02959967
Pt       5.61442796       6.48298327      24.58417384        2       0.01397804      -0.13930684       0.15459259
Pt       8.42164224       6.48298339      24.58417376        2      -0.00942409      -0.13337322       0.14780031
Pt      -0.00201094       0.00340833      26.90697114        1       0.00293608       0.01116484      -0.00210527
Pt       2.80627866       0.07491961      26.90186200        1      -0.00044374      -0.03726890      -0.02578830
Pt       5.61439122       0.00336401      26.90872716        1      -0.00149096       0.00712592      -0.00048766
Pt       1.40453008       2.45024133      26.90867982        1       0.00305051      -0.00129921      -0.00051713
Pt       4.20958647       2.44994761      26.90931290        1      -0.00464197      -0.00109265      -0.00018870
Pt       7.01884680       2.38178236      26.89056054        1      -0.00165181       0.03283036       0.01071587
Pt       2.80685146       4.87578286      26.91242901        1      -0.00128769      -0.02671005      -0.01707824
Pt       5.60375071       4.86792833      27.06268042        1       0.02710811      -0.03386256      -0.00203010
Pt       8.43088927       4.86968676      27.06507462        1      -0.01411592      -0.03868871      -0.01252081
O        7.01768581       4.94167958      29.69932265        0      -0.00211843       0.00644316      -0.00923623
C        7.01732752       4.92515585      28.51111135        0      -0.00375563       0.00071879       0.00613069
