38
Lattice="8.421641763931781 0.0 0.0 4.2108208819658905 7.293355709136913 0.0 0.0 0.0 46.87624170604845" Properties=species:S:1:pos:R:3:tags:I:1:forces:R:3 charge=0 spin=0 energy=-202.87920856118907 free_energy=-202.87920856118907 stress="0.01022193394601345 1.3780467270407826e-05 9.201943612424657e-06 1.3780467270407826e-05 0.009590747766196728 6.721814770571655e-06 9.201943612424657e-06 6.721814770571655e-06 -0.00035271132946945727" pbc="T T T"
Pt      -0.00000000       0.00000021      19.95723433        4       0.00341844       0.00007061       0.01776403
Pt       2.80721396      -0.00000008      19.95723446        4      -0.00020370       0.00011561       0.02179201
Pt       5.61442779      -0.00000016      19.95723449        4      -0.00061839      -0.00221788       0.01975525
Pt       1.40360720       2.43111835      19.95723435        4      -0.01978887      -0.00100859      -0.00631288
Pt       4.21082080       2.43111834      19.95723443        4       0.01951223      -0.00209936      -0.00384323
Pt       7.01803483       2.43111844      19.95723431        4      -0.00069785       0.00418299       0.00725305
Pt       2.80721405       4.86223724      19.95723403        4      -0.00072280      -0.00919389       0.02556189
Pt       5.61442805       4.86223734      19.95723421        4       0.00252084      -0.00162394       0.01511788
Pt       8.42164144       4.86223725      19.95723437        4      -0.00029282      -0.00436546       0.01302323
Pt       1.40360728       0.81037258      22.29206792        3       0.00995450       0.05453187      -0.11212541
Pt       4.21082126       0.81037248      22.29206794        3      -0.01053817       0.05164991      -0.11149500
Pt       7.01803474       0.81037256      22.29206786        3      -0.00133372       0.00670598      -0.06886609
Pt       2.80721448       3.24149124      22.29206779        3       0.00175237      -0.08153484      -0.21879552
Pt       5.61442762       3.24149125      22.29206790        3      -0.03276455      -0.01836662      -0.08528614
Pt       8.42164155       3.24149130      22.29206809        3       0.03126318      -0.01759039      -0.08299744
Pt       4.21082091       5.67260997      22.29206801        3       0.00168300      -0.01475931      -0.01904603
Pt       7.01803488       5.67261037      22.29206781        3       0.00149774       0.00655846      -0.00831896
Pt       9.82524819       5.67261065      22.29206808        3       0.00303659      -0.02509625      -0.02036054
Pt      -0.00000056       1.62074567      24.58417371        2       0.03286601       0.01248621      -0.07672163
Pt       2.80721444       1.62074547      24.58417389        2      -0.00089989       0.04936134      -0.16024661
Pt       5.61442780       1.62074536      24.58417372        2      -0.03378948       0.00861151      -0.06889728
Pt       1.40360637       4.05186441      24.58417386        2      -0.16924496       0.13591304       0.27081540
Pt       4.21082088       4.05186402      24.58417378        2       0.15876070       0.12670211       0.27105659
Pt       7.01803505       4.05186404      24.58417403        2       0.00134026       0.07741031       0.16148676
Pt       2.80721282       6.48298342      24.58417366        2      -0.00485576      -0.00312947      -0.02959672
Pt       5.61442796       6.48298327      24.58417384        2       0.01397912      -0.13930438       0.15459356
Pt       8.42164224       6.48298339      24.58417376        2      -0.00942489      -0.13337091       0.14780037
Pt      -0.00201174       0.00340868      26.90697121        1       0.00293978       0.01116255      -0.00210553
Pt       2.80627872       0.07491976      26.90186256        1      -0.00044562      -0.03726877      -0.02579391
Pt       5.61439201       0.00336440      26.90872753        1      -0.00149243       0.00712557      -0.00048704
Pt       1.40453036       2.45024081      26.90868004        1       0.00304996      -0.00129582      -0.00051800
Pt       4.20958618       2.44994746      26.90931325        1      -0.00464065      -0.00109104      -0.00018876
Pt       7.01884693       2.38178267      26.89056008        1      -0.00165224       0.03282939       0.01071632
Pt       2.80685152       4.87578296      26.91243100        1      -0.00128769      -0.02670981      -0.01708577
Pt       5.60375009       4.86792829      27.06267967        1       0.02712158      -0.03386012      -0.00200896
Pt       8.43088944       4.86968713      27.06507394        1      -0.01412570      -0.03868919      -0.01250128
O        7.01768572       4.94167884      29.69932327        0      -0.00211775       0.00644085      -0.00940419
C        7.01732768       4.92515655      28.51111184        0      -0.00375814       0.00071765       0.00626627
