38
Lattice="8.421641763931781 0.0 0.0 4.2108208819658905 7.293355709136913 0.0 0.0 0.0 46.87624170604845" Properties=species:S:1:pos:R:3:tags:I:1:forces:R:3 charge=0 spin=0 energy=-202.87921428323497 free_energy=-202.87921428323497 stress="0.010221920907497406 1.3777533240499906e-05 9.208847586705815e-06 1.3777533240499906e-05 0.009590732865035534 6.726264473400079e-06 9.208847586705815e-06 6.726264473400079e-06 -0.0003527342632878572" pbc="T T T"
Pt      -0.00000000       0.00000021      19.95723433        4       0.00341857       0.00007060       0.01776407
Pt       2.80721396      -0.00000008      19.95723446        4      -0.00020368       0.00011557       0.02179197
Pt       5.61442779      -0.00000016      19.95723449        4      -0.00061845      -0.00221789       0.01975525
Pt       1.40360720       2.43111835      19.95723435        4      -0.01978890      -0.00100850      -0.00631283
Pt       4.21082080       2.43111834      19.95723443        4       0.01951214      -0.00209931      -0.00384316
Pt       7.01803483       2.43111844      19.95723431        4      -0.00069780       0.00418305       0.00725293
Pt       2.80721405       4.86223724      19.95723403        4      -0.00072298      -0.00919398       0.02556172
Pt       5.61442805       4.86223734      19.95723421        4       0.00252084      -0.00162376       0.01511792
Pt       8.42164144       4.86223725      19.95723437        4      -0.00029282      -0.00436563       0.01302320
Pt       1.40360728       0.81037258      22.29206792        3       0.00995496       0.05453207      -0.11212623
Pt       4.21082126       0.81037248      22.29206794        3      -0.01053826       0.05164984      -0.11149494
Pt       7.01803474       0.81037256      22.29206786        3      -0.00133360       0.00670600      -0.06886595
Pt       2.80721448       3.24149124      22.29206779        3       0.00175272      -0.08153504      -0.21879534
Pt       5.61442762       3.24149125      22.29206790        3      -0.03276449      -0.01836660      -0.08528566
Pt       8.42164155       3.24149130      22.29206809        3       0.03126336      -0.01759041      -0.08299688
Pt       4.21082091       5.67260997      22.29206801        3       0.00168329      -0.01475922      -0.01904605
Pt       7.01803488       5.67261037      22.29206781        3       0.00149814       0.00655873      -0.00831828
Pt       9.82524819       5.67261065      22.29206808        3       0.00303654      -0.02509619      -0.02036064
Pt      -0.00000056       1.62074567      24.58417371        2       0.03286537       0.01248668      -0.07672154
Pt       2.80721444       1.62074547      24.58417389        2      -0.00089915       0.04936376      -0.16024905
Pt       5.61442780       1.62074536      24.58417372        2      -0.03378967       0.00861190      -0.06889864
Pt       1.40360637       4.05186441      24.58417386        2      -0.16924885       0.13591260       0.27081236
Pt       4.21082088       4.05186402      24.58417378        2       0.15876277       0.12670086       0.27105120
Pt       7.01803505       4.05186404      24.58417403        2       0.00134168       0.07741070       0.16148804
Pt       2.80721282       6.48298342      24.58417366        2      -0.00485553      -0.00312675      -0.02960297
Pt       5.61442796       6.48298327      24.58417384        2       0.01397814      -0.13930579       0.15459172
Pt       8.42164224       6.48298339      24.58417376        2      -0.00942457      -0.13337335       0.14780007
Pt      -0.00201135       0.00340866      26.90697135        1       0.00294049       0.01116481      -0.00210534
Pt       2.80627873       0.07491985      26.90186137        1      -0.00044631      -0.03727074      -0.02578579
Pt       5.61439137       0.00336429      26.90872727        1      -0.00149241       0.00712714      -0.00048617
Pt       1.40453033       2.45024108      26.90867985        1       0.00304900      -0.00129809      -0.00051775
Pt       4.20958640       2.44994772      26.90931231        1      -0.00464344      -0.00109488      -0.00018887
Pt       7.01884667       2.38178235      26.89056074        1      -0.00164879       0.03283093       0.01071696
Pt       2.80685163       4.87578279      26.91242834        1      -0.00128765      -0.02671079      -0.01707358
Pt       5.60375025       4.86792802      27.06267954        1       0.02712390      -0.03385798      -0.00200952
Pt       8.43088933       4.86968658      27.06507402        1      -0.01412230      -0.03868831      -0.01251458
O        7.01768585       4.94167901      29.69932344        0      -0.00212112       0.00643784      -0.00940050
C        7.01732781       4.92515581      28.51111176        0      -0.00376104       0.00072000       0.00627267
