38
Lattice="8.421641763931781 0.0 0.0 4.2108208819658905 7.293355709136913 0.0 0.0 0.0 46.87624170604845" Properties=species:S:1:pos:R:3:tags:I:1:forces:R:3 charge=0 spin=0 energy=-202.91223621011486 free_energy=-202.91223621011486 stress="0.009914925321936607 7.465843943066375e-09 8.006892038281421e-09 7.465843943066375e-09 0.00991494208574295 3.458417552337778e-08 8.006892038281421e-09 3.458417552337778e-08 -0.00044919762876816094" pbc="T T T"
Pt      -0.00000000       0.00000021      19.95723433        4      -0.01509346      -0.00889696       0.01065179
Pt       2.80721396      -0.00000008      19.95723446        4       0.01520732      -0.00863734       0.01065256
Pt       5.61442779      -0.00000016      19.95723449        4      -0.00268197       0.00254183       0.01324672
Pt       1.40360720       2.43111835      19.95723435        4      -0.00011593       0.01753761       0.01062771
Pt       4.21082080       2.43111834      19.95723443        4      -0.00072729      -0.00061599       0.01699605
Pt       7.01803483       2.43111844      19.95723431        4       0.00092523      -0.00032762       0.01694378
Pt       2.80721405       4.86223724      19.95723403        4       0.00356644       0.00104530       0.01327664
Pt       5.61442805       4.86223734      19.95723421        4      -0.00019731       0.00094503       0.01699919
Pt       8.42164144       4.86223725      19.95723437        4      -0.00088326      -0.00359356       0.01322361
Pt       1.40360728       0.81037258      22.29206792        3      -0.00000317       0.00000171      -0.28189191
Pt       4.21082126       0.81037248      22.29206794        3      -0.03930448      -0.00576816      -0.06578107
Pt       7.01803474       0.81037256      22.29206786        3       0.03379197      -0.01058645      -0.06688827
Pt       2.80721448       3.24149124      22.29206779        3      -0.02602983      -0.02403403      -0.06692967
Pt       5.61442762       3.24149125      22.29206790        3       0.00000397       0.00000009      -0.00723721
Pt       8.42164155       3.24149130      22.29206809        3       0.02467766      -0.03125048      -0.06583076
Pt       4.21082091       5.67260997      22.29206801        3       0.01463050       0.03702536      -0.06584233
Pt       7.01803488       5.67261037      22.29206781        3      -0.00777360       0.03461973      -0.06683535
Pt       9.82524819       5.67261065      22.29206808        3       0.00000560      -0.00001004      -0.07234555
Pt      -0.00000056       1.62074567      24.58417371        2      -0.09373723       0.05536579       0.13137776
Pt       2.80721444       1.62074547      24.58417389        2       0.09471817       0.05344892       0.13140564
Pt       5.61442780       1.62074536      24.58417372        2       0.00058388       0.07584435       0.14731956
Pt       1.40360637       4.05186441      24.58417386        2       0.00295804      -0.02852789      -0.08111440
Pt       4.21082088       4.05186402      24.58417378        2       0.06542054      -0.03840227       0.14739470
Pt       7.01803505       4.05186404      24.58417403        2      -0.06597626      -0.03740656       0.14743854
Pt       2.80721282       6.48298342      24.58417366        2       0.02323911       0.01690841      -0.08128086
Pt       5.61442796       6.48298327      24.58417384        2      -0.00099692      -0.10879607       0.13135827
Pt       8.42164224       6.48298339      24.58417376        2      -0.02620582       0.01156940      -0.08119754
Pt      -0.00162772      -0.00145831      26.90726241        1       0.02674818       0.01730621      -0.00430230
Pt       2.80931842      -0.00068605      26.90727389        1      -0.02845354       0.01451281      -0.00432963
Pt       5.61502840      -0.01796596      26.89432730        1       0.00197192      -0.03845440       0.01697443
Pt       1.40315190       2.43327329      26.90728793        1       0.00163948      -0.03185977      -0.00436477
Pt       4.19044185       2.41676270      27.01638980        1      -0.02167575      -0.00956298       0.00068538
Pt       7.04065062       2.42065921      27.01639523        1       0.01917075      -0.01402769       0.00065233
Pt       2.79134220       4.87070828      26.89433412        1      -0.03422993       0.01750337       0.01694216
Pt       5.61218019       4.88705890      27.01639084        1       0.00253672       0.02360918       0.00066270
Pt       8.43690596       4.87173191      26.89435440        1       0.03230023       0.02097218       0.01688214
O        5.61442446       3.24149239      29.54616226        0      -0.00001033      -0.00000165       0.00903655
C        5.61442276       3.24149194      28.34500170        0       0.00000050       0.00000284      -0.00457674
