38
Lattice="8.421641763931781 0.0 0.0 4.2108208819658905 7.293355709136913 0.0 0.0 0.0 46.87624170604845" Properties=species:S:1:pos:R:3:tags:I:1:forces:R:3 charge=0 spin=0 energy=-202.91206073404064 free_energy=-202.91206073404064 stress="0.009984037838876247 6.322492751564823e-09 -2.4183965940949292e-09 6.322492751564823e-09 0.00998406670987606 4.092726513249545e-08 -2.4183965940949292e-09 4.092726513249545e-08 -0.0003007430350407958" pbc="T T T"
Pt      -0.00000000       0.00000021      19.95723433        4      -0.01525301      -0.00890666       0.01067552
Pt       2.80721396      -0.00000008      19.95723446        4       0.01529596      -0.00877061       0.01067563
Pt       5.61442779      -0.00000016      19.95723449        4      -0.00267863       0.00279326       0.01343578
Pt       1.40360720       2.43111835      19.95723435        4      -0.00004501       0.01768035       0.01065296
Pt       4.21082080       2.43111834      19.95723443        4      -0.00094463      -0.00091823       0.01727158
Pt       7.01803483       2.43111844      19.95723431        4       0.00129454      -0.00036506       0.01722058
Pt       2.80721405       4.86223724      19.95723403        4       0.00378243       0.00091810       0.01346903
Pt       5.61442805       4.86223734      19.95723421        4      -0.00035067       0.00128412       0.01727690
Pt       8.42164144       4.86223725      19.95723437        4      -0.00110139      -0.00371663       0.01341676
Pt       1.40360728       0.81037258      22.29206792        3      -0.00000404       0.00000198      -0.27932173
Pt       4.21082126       0.81037248      22.29206794        3      -0.03834918      -0.00538066      -0.06507714
Pt       7.01803474       0.81037256      22.29206786        3       0.03302991      -0.01040774      -0.06642962
Pt       2.80721448       3.24149124      22.29206779        3      -0.02549524      -0.02346269      -0.06646324
Pt       5.61442762       3.24149125      22.29206790        3       0.00000495       0.00000122      -0.01061800
Pt       8.42164155       3.24149130      22.29206809        3       0.02386465      -0.03061059      -0.06513271
Pt       4.21082091       5.67260997      22.29206801        3       0.01448764       0.03599906      -0.06513335
Pt       7.01803488       5.67261037      22.29206781        3      -0.00754666       0.03387083      -0.06637085
Pt       9.82524819       5.67261065      22.29206808        3       0.00000558      -0.00001056      -0.07606842
Pt      -0.00000056       1.62074567      24.58417371        2      -0.09206221       0.05484552       0.12830412
Pt       2.80721444       1.62074547      24.58417389        2       0.09345829       0.05225271       0.12831096
Pt       5.61442780       1.62074536      24.58417372        2       0.00036310       0.06672620       0.15598658
Pt       1.40360637       4.05186441      24.58417386        2       0.00225058      -0.02791045      -0.05021283
Pt       4.21082088       4.05186402      24.58417378        2       0.05764346      -0.03366508       0.15603106
Pt       7.01803505       4.05186404      24.58417403        2      -0.05799087      -0.03305105       0.15607713
Pt       2.80721282       6.48298342      24.58417366        2       0.02305619       0.01596968      -0.05033881
Pt       5.61442796       6.48298327      24.58417384        2      -0.00141202      -0.10708428       0.12827478
Pt       8.42164224       6.48298339      24.58417376        2      -0.02530179       0.01191744      -0.05028045
Pt       0.00654127       0.00254021      26.91239745        1      -0.02384484      -0.01069310      -0.01477193
Pt       2.80174356       0.00439511      26.91239569        1       0.02119279      -0.01530084      -0.01476516
Pt       5.61607299      -0.01968565      26.90198572        1      -0.00171004      -0.03630291      -0.01518669
Pt       1.40253868       2.42418481      26.91240850        1       0.00264256       0.02600026      -0.01480401
Pt       4.18761578       2.41599010      27.01293259        1       0.02510192       0.01400110       0.03319615
Pt       7.04273955       2.41859024      27.01293256        1      -0.02467296       0.01472249       0.03319370
Pt       2.78934331       4.87065676      26.90198691        1      -0.03059329       0.01963273      -0.01519463
Pt       5.61292696       4.88989536      27.01292522        1      -0.00041154      -0.02872952       0.03320868
Pt       8.43787088       4.87350523      26.90198506        1       0.03228827       0.01666946      -0.01519018
O        5.61442595       3.24149520      29.54890690        0      -0.00000057      -0.00000262      -0.04403073
C        5.61442515       3.24149140      28.34771055        0       0.00000550       0.00000269      -0.03128763
