38
Lattice="8.421641763931781 0.0 0.0 4.2108208819658905 7.293355709136913 0.0 0.0 0.0 46.87624170604845" Properties=species:S:1:pos:R:3:tags:I:1:forces:R:3 charge=0 spin=0 energy=-202.9127855265211 free_energy=-202.9127855265211 stress="0.009971528314054012 1.8558744541152805e-09 1.6244465772530248e-09 1.8558744541152805e-09 0.00997154787182808 3.259382808096234e-08 1.6244465772530248e-09 3.259382808096234e-08 -0.00033162126783281565" pbc="T T T"
Pt      -0.00000000       0.00000021      19.95723433        4      -0.01513334      -0.00894287       0.01087221
Pt       2.80721396      -0.00000008      19.95723446        4       0.01526828      -0.00864867       0.01087296
Pt       5.61442779      -0.00000016      19.95723449        4      -0.00261639       0.00265536       0.01326775
Pt       1.40360720       2.43111835      19.95723435        4      -0.00013684       0.01759438       0.01085006
Pt       4.21082080       2.43111834      19.95723443        4      -0.00120498      -0.00103751       0.01745161
Pt       7.01803483       2.43111844      19.95723431        4       0.00152764      -0.00053179       0.01739968
Pt       2.80721405       4.86223724      19.95723403        4       0.00363192       0.00093328       0.01329903
Pt       5.61442805       4.86223734      19.95723421        4      -0.00032266       0.00156964       0.01745483
Pt       8.42164144       4.86223725      19.95723437        4      -0.00101328      -0.00359371       0.01324638
Pt       1.40360728       0.81037258      22.29206792        3      -0.00000293       0.00000147      -0.28044930
Pt       4.21082126       0.81037248      22.29206794        3      -0.03856367      -0.00521753      -0.06506826
Pt       7.01803474       0.81037256      22.29206786        3       0.03311516      -0.01020800      -0.06619856
Pt       2.80721448       3.24149124      22.29206779        3      -0.02536386      -0.02363513      -0.06623369
Pt       5.61442762       3.24149125      22.29206790        3       0.00000442       0.00000170      -0.01227487
Pt       8.42164155       3.24149130      22.29206809        3       0.02383253      -0.03088342      -0.06512280
Pt       4.21082091       5.67260997      22.29206801        3       0.01473544       0.03610662      -0.06512754
Pt       7.01803488       5.67261037      22.29206781        3      -0.00776201       0.03384217      -0.06614909
Pt       9.82524819       5.67261065      22.29206808        3       0.00000540      -0.00001170      -0.07464495
Pt      -0.00000056       1.62074567      24.58417371        2      -0.09317563       0.05522881       0.13472979
Pt       2.80721444       1.62074547      24.58417389        2       0.09435182       0.05301351       0.13474624
Pt       5.61442780       1.62074536      24.58417372        2       0.00011515       0.06976202       0.16784453
Pt       1.40360637       4.05186441      24.58417386        2       0.00247778      -0.03167885      -0.06475382
Pt       4.21082088       4.05186402      24.58417378        2       0.06040249      -0.03496593       0.16789608
Pt       7.01803505       4.05186404      24.58417403        2      -0.06050142      -0.03479003       0.16793792
Pt       2.80721282       6.48298342      24.58417366        2       0.02620315       0.01806692      -0.06487310
Pt       5.61442796       6.48298327      24.58417384        2      -0.00119418      -0.10823525       0.13471928
Pt       8.42164224       6.48298339      24.58417376        2      -0.02868022       0.01360864      -0.06480894
Pt       0.00282673       0.00033130      26.91103716        1       0.00139927       0.00372553      -0.01239801
Pt       2.80551583       0.00228450      26.91103572        1      -0.00392854      -0.00065514      -0.01239218
Pt       5.61544314      -0.02615268      26.90106747        1      -0.00007729       0.01723017      -0.00425001
Pt       1.40247958       2.42850752      26.91103814        1       0.00252434      -0.00307343      -0.01239986
Pt       4.18688018       2.41619221      27.01816813        1       0.01180103       0.00460588      -0.00611272
Pt       7.04293245       2.41785118      27.01816855        1      -0.00988411       0.00791114      -0.00612066
Pt       2.78405374       4.87443931      26.90105849        1       0.01496617      -0.00855645      -0.00422560
Pt       5.61346994       4.89043217      27.01816415        1      -0.00191342      -0.01251146      -0.00610254
Pt       8.44378518       4.87619743      26.90105794        1      -0.01488520      -0.00868652      -0.00422480
O        5.61442728       3.24149243      29.54575344        0      -0.00000065       0.00000092      -0.01656301
C        5.61442764       3.24149022      28.34420278        0      -0.00000126       0.00000512       0.00790584
