38
Lattice="8.421641763931781 0.0 0.0 4.2108208819658905 7.293355709136913 0.0 0.0 0.0 46.87624170604845" Properties=species:S:1:pos:R:3:tags:I:1:forces:R:3 charge=0 spin=0 energy=-202.91205978036632 free_energy=-202.91205978036632 stress="0.009984039701521397 4.133371422909704e-09 -2.0387160848400754e-09 4.133371422909704e-09 0.009984067641198635 3.842222895400482e-08 -2.0387160848400754e-09 3.842222895400482e-08 -0.0003007973718922585" pbc="T T T"
Pt      -0.00000000       0.00000021      19.95723433        4      -0.01525299      -0.00890649       0.01067559
Pt       2.80721396      -0.00000008      19.95723446        4       0.01529599      -0.00877063       0.01067550
Pt       5.61442779      -0.00000016      19.95723449        4      -0.00267876       0.00279330       0.01343576
Pt       1.40360720       2.43111835      19.95723435        4      -0.00004501       0.01768023       0.01065305
Pt       4.21082080       2.43111834      19.95723443        4      -0.00094463      -0.00091820       0.01727160
Pt       7.01803483       2.43111844      19.95723431        4       0.00129463      -0.00036509       0.01722050
Pt       2.80721405       4.86223724      19.95723403        4       0.00378249       0.00091809       0.01346911
Pt       5.61442805       4.86223734      19.95723421        4      -0.00035077       0.00128398       0.01727675
Pt       8.42164144       4.86223725      19.95723437        4      -0.00110137      -0.00371660       0.01341671
Pt       1.40360728       0.81037258      22.29206792        3      -0.00000384       0.00000187      -0.27932113
Pt       4.21082126       0.81037248      22.29206794        3      -0.03834855      -0.00538056      -0.06507634
Pt       7.01803474       0.81037256      22.29206786        3       0.03302996      -0.01040773      -0.06642973
Pt       2.80721448       3.24149124      22.29206779        3      -0.02549497      -0.02346271      -0.06646312
Pt       5.61442762       3.24149125      22.29206790        3       0.00000458       0.00000092      -0.01061808
Pt       8.42164155       3.24149130      22.29206809        3       0.02386542      -0.03061095      -0.06513283
Pt       4.21082091       5.67260997      22.29206801        3       0.01448762       0.03599905      -0.06513337
Pt       7.01803488       5.67261037      22.29206781        3      -0.00754641       0.03387128      -0.06637139
Pt       9.82524819       5.67261065      22.29206808        3       0.00000554      -0.00001024      -0.07606822
Pt      -0.00000056       1.62074567      24.58417371        2      -0.09206316       0.05484645       0.12830462
Pt       2.80721444       1.62074547      24.58417389        2       0.09345899       0.05225302       0.12831074
Pt       5.61442780       1.62074536      24.58417372        2       0.00036313       0.06672627       0.15598603
Pt       1.40360637       4.05186441      24.58417386        2       0.00225000      -0.02791065      -0.05021228
Pt       4.21082088       4.05186402      24.58417378        2       0.05764262      -0.03366562       0.15602969
Pt       7.01803505       4.05186404      24.58417403        2      -0.05799023      -0.03305173       0.15607478
Pt       2.80721282       6.48298342      24.58417366        2       0.02305550       0.01596940      -0.05033803
Pt       5.61442796       6.48298327      24.58417384        2      -0.00141224      -0.10708448       0.12827344
Pt       8.42164224       6.48298339      24.58417376        2      -0.02530161       0.01191760      -0.05027902
Pt       0.00654162       0.00254045      26.91239787        1      -0.02384730      -0.01069466      -0.01477188
Pt       2.80174313       0.00439530      26.91239592        1       0.02119580      -0.01530264      -0.01476612
Pt       5.61607329      -0.01968497      26.90198541        1      -0.00171141      -0.03630729      -0.01518759
Pt       1.40253872       2.42418440      26.91240871        1       0.00264121       0.02600335      -0.01480386
Pt       4.18761606       2.41599037      27.01293219        1       0.02510343       0.01400079       0.03319816
Pt       7.04273908       2.41859045      27.01293250        1      -0.02467304       0.01472051       0.03319474
Pt       2.78934371       4.87065646      26.90198706        1      -0.03059497       0.01963545      -0.01519500
Pt       5.61292703       4.88989500      27.01292502        1      -0.00041425      -0.02873031       0.03321851
Pt       8.43787015       4.87350477      26.90198537        1       0.03229423       0.01667305      -0.01518995
O        5.61442605       3.24149518      29.54890589        0      -0.00000066      -0.00000055      -0.04389726
C        5.61442524       3.24149131      28.34771194        0       0.00000500       0.00000245      -0.03143013
