38
Lattice="8.421641763931781 0.0 0.0 4.2108208819658905 7.293355709136913 0.0 0.0 0.0 46.87624170604845" Properties=species:S:1:pos:R:3:tags:I:1:forces:R:3 charge=0 spin=0 energy=-202.91278648019542 free_energy=-202.91278648019542 stress="0.009971545077860355 2.4560877776025336e-09 1.2860777720558048e-10 2.4560877776025336e-09 0.009971559047698975 3.1225301455606314e-08 1.2860777720558048e-10 3.1225301455606314e-08 -0.00033171960967592895" pbc="T T T"
Pt      -0.00000000       0.00000021      19.95723433        4      -0.01513319      -0.00894286       0.01087221
Pt       2.80721396      -0.00000008      19.95723446        4       0.01526810      -0.00864861       0.01087317
Pt       5.61442779      -0.00000016      19.95723449        4      -0.00261635       0.00265518       0.01326790
Pt       1.40360720       2.43111835      19.95723435        4      -0.00013683       0.01759427       0.01085008
Pt       4.21082080       2.43111834      19.95723443        4      -0.00120510      -0.00103762       0.01745163
Pt       7.01803483       2.43111844      19.95723431        4       0.00152782      -0.00053181       0.01739968
Pt       2.80721405       4.86223724      19.95723403        4       0.00363189       0.00093343       0.01329897
Pt       5.61442805       4.86223734      19.95723421        4      -0.00032262       0.00156966       0.01745496
Pt       8.42164144       4.86223725      19.95723437        4      -0.00101324      -0.00359363       0.01324653
Pt       1.40360728       0.81037258      22.29206792        3      -0.00000301       0.00000138      -0.28044787
Pt       4.21082126       0.81037248      22.29206794        3      -0.03856353      -0.00521738      -0.06506748
Pt       7.01803474       0.81037256      22.29206786        3       0.03311506      -0.01020803      -0.06619906
Pt       2.80721448       3.24149124      22.29206779        3      -0.02536413      -0.02363529      -0.06623412
Pt       5.61442762       3.24149125      22.29206790        3       0.00000453       0.00000179      -0.01227533
Pt       8.42164155       3.24149130      22.29206809        3       0.02383227      -0.03088325      -0.06512267
Pt       4.21082091       5.67260997      22.29206801        3       0.01473530       0.03610681      -0.06512751
Pt       7.01803488       5.67261037      22.29206781        3      -0.00776211       0.03384209      -0.06614886
Pt       9.82524819       5.67261065      22.29206808        3       0.00000522      -0.00001143      -0.07464463
Pt      -0.00000056       1.62074567      24.58417371        2      -0.09317368       0.05522900       0.13473032
Pt       2.80721444       1.62074547      24.58417389        2       0.09435132       0.05301439       0.13474905
Pt       5.61442780       1.62074536      24.58417372        2       0.00011412       0.06976180       0.16784327
Pt       1.40360637       4.05186441      24.58417386        2       0.00247835      -0.03168030      -0.06475332
Pt       4.21082088       4.05186402      24.58417378        2       0.06040233      -0.03496636       0.16789646
Pt       7.01803505       4.05186404      24.58417403        2      -0.06050120      -0.03478900       0.16793747
Pt       2.80721282       6.48298342      24.58417366        2       0.02620366       0.01806659      -0.06487363
Pt       5.61442796       6.48298327      24.58417384        2      -0.00119426      -0.10823624       0.13472047
Pt       8.42164224       6.48298339      24.58417376        2      -0.02868041       0.01360829      -0.06480961
Pt       0.00282657       0.00033126      26.91103779        1       0.00140091       0.00372564      -0.01239829
Pt       2.80551602       0.00228446      26.91103631        1      -0.00393084      -0.00065441      -0.01239225
Pt       5.61544306      -0.02615272      26.90106746        1      -0.00007665       0.01723118      -0.00424942
Pt       1.40247950       2.42850780      26.91103866        1       0.00252563      -0.00307529      -0.01240558
Pt       4.18688007       2.41619214      27.01816799        1       0.01180584       0.00460987      -0.00610946
Pt       7.04293249       2.41785106      27.01816839        1      -0.00989189       0.00791667      -0.00611003
Pt       2.78405373       4.87443932      26.90105825        1       0.01496826      -0.00855786      -0.00422495
Pt       5.61346994       4.89043206      27.01816362        1      -0.00191205      -0.01251479      -0.00609980
Pt       8.44378554       4.87619742      26.90105792        1      -0.01488981      -0.00868833      -0.00422418
O        5.61442724       3.24149262      29.54575294        0       0.00000121      -0.00000032      -0.01629449
C        5.61442762       3.24149018      28.34420582        0      -0.00000090       0.00000502       0.00762023
