38
Lattice="8.421641763931781 0.0 0.0 4.2108208819658905 7.293355709136913 0.0 0.0 0.0 46.87624170604845" Properties=species:S:1:pos:R:3:tags:I:1:forces:R:3 charge=0 spin=0 energy=-202.91223430276622 free_energy=-202.91223430276622 stress="0.009914916940033436 7.04053970679297e-09 7.786729483427735e-09 7.04053970679297e-09 0.00991492997854948 3.5619645899487296e-08 7.786729483427735e-09 3.5619645899487296e-08 -0.0004492155567277223" pbc="T T T"
Pt      -0.00000000       0.00000021      19.95723433        4      -0.01509382      -0.00889708       0.01065184
Pt       2.80721396      -0.00000008      19.95723446        4       0.01520723      -0.00863728       0.01065264
Pt       5.61442779      -0.00000016      19.95723449        4      -0.00268179       0.00254192       0.01324680
Pt       1.40360720       2.43111835      19.95723435        4      -0.00011592       0.01753771       0.01062777
Pt       4.21082080       2.43111834      19.95723443        4      -0.00072750      -0.00061612       0.01699650
Pt       7.01803483       2.43111844      19.95723431        4       0.00092522      -0.00032768       0.01694383
Pt       2.80721405       4.86223724      19.95723403        4       0.00356649       0.00104533       0.01327670
Pt       5.61442805       4.86223734      19.95723421        4      -0.00019722       0.00094512       0.01699921
Pt       8.42164144       4.86223725      19.95723437        4      -0.00088319      -0.00359359       0.01322382
Pt       1.40360728       0.81037258      22.29206792        3      -0.00000321       0.00000183      -0.28189188
Pt       4.21082126       0.81037248      22.29206794        3      -0.03930444      -0.00576809      -0.06578062
Pt       7.01803474       0.81037256      22.29206786        3       0.03379186      -0.01058677      -0.06688860
Pt       2.80721448       3.24149124      22.29206779        3      -0.02602968      -0.02403405      -0.06692923
Pt       5.61442762       3.24149125      22.29206790        3       0.00000415       0.00000021      -0.00723835
Pt       8.42164155       3.24149130      22.29206809        3       0.02467749      -0.03125019      -0.06583054
Pt       4.21082091       5.67260997      22.29206801        3       0.01463050       0.03702514      -0.06584297
Pt       7.01803488       5.67261037      22.29206781        3      -0.00777357       0.03461930      -0.06683495
Pt       9.82524819       5.67261065      22.29206808        3       0.00000546      -0.00001003      -0.07234534
Pt      -0.00000056       1.62074567      24.58417371        2      -0.09373561       0.05536490       0.13137531
Pt       2.80721444       1.62074547      24.58417389        2       0.09471676       0.05344836       0.13140371
Pt       5.61442780       1.62074536      24.58417372        2       0.00058373       0.07584266       0.14731596
Pt       1.40360637       4.05186441      24.58417386        2       0.00295818      -0.02852828      -0.08111510
Pt       4.21082088       4.05186402      24.58417378        2       0.06541906      -0.03840169       0.14739102
Pt       7.01803505       4.05186404      24.58417403        2      -0.06597468      -0.03740548       0.14743663
Pt       2.80721282       6.48298342      24.58417366        2       0.02323891       0.01690887      -0.08128099
Pt       5.61442796       6.48298327      24.58417384        2      -0.00099664      -0.10879408       0.13135535
Pt       8.42164224       6.48298339      24.58417376        2      -0.02620607       0.01156960      -0.08119981
Pt      -0.00162785      -0.00145823      26.90726242        1       0.02674675       0.01730651      -0.00430241
Pt       2.80931841      -0.00068605      26.90727393        1      -0.02845383       0.01451299      -0.00432889
Pt       5.61502816      -0.01796650      26.89432720        1       0.00197645      -0.03845072       0.01697492
Pt       1.40315204       2.43327316      26.90728803        1       0.00163916      -0.03185895      -0.00436496
Pt       4.19044150       2.41676267      27.01638854        1      -0.02167443      -0.00956275       0.00069235
Pt       7.04065071       2.42065918      27.01639409        1       0.01916962      -0.01402541       0.00065688
Pt       2.79134231       4.87070861      26.89433512        1      -0.03422921       0.01750359       0.01694252
Pt       5.61218010       4.88705907      27.01638982        1       0.00253928       0.02360452       0.00066771
Pt       8.43690641       4.87173220      26.89435470        1       0.03229428       0.02096816       0.01688224
O        5.61442452       3.24149233      29.54615897        0      -0.00001161      -0.00000170       0.00903828
C        5.61442270       3.24149197      28.34499996        0       0.00000186       0.00000318      -0.00457722
