38
Lattice="8.421641763931781 0.0 0.0 4.2108208819658905 7.293355709136913 0.0 0.0 0.0 46.87624170604845" Properties=species:S:1:pos:R:3:tags:I:1:forces:R:3 charge=0 spin=0 energy=-202.91278934121837 free_energy=-202.91278934121837 stress="0.00997153203934431 2.0381478726960722e-09 2.241004937175717e-09 2.0381478726960722e-09 0.00997154787182808 3.1239157038953635e-08 2.241004937175717e-09 3.1239157038953635e-08 -0.0003316759248264134" pbc="T T T"
Pt      -0.00000000       0.00000021      19.95723433        4      -0.01513334      -0.00894289       0.01087211
Pt       2.80721396      -0.00000008      19.95723446        4       0.01526821      -0.00864865       0.01087308
Pt       5.61442779      -0.00000016      19.95723449        4      -0.00261627       0.00265527       0.01326778
Pt       1.40360720       2.43111835      19.95723435        4      -0.00013675       0.01759446       0.01084995
Pt       4.21082080       2.43111834      19.95723443        4      -0.00120506      -0.00103763       0.01745173
Pt       7.01803483       2.43111844      19.95723431        4       0.00152761      -0.00053183       0.01739991
Pt       2.80721405       4.86223724      19.95723403        4       0.00363200       0.00093338       0.01329897
Pt       5.61442805       4.86223734      19.95723421        4      -0.00032269       0.00156938       0.01745498
Pt       8.42164144       4.86223725      19.95723437        4      -0.00101317      -0.00359371       0.01324644
Pt       1.40360728       0.81037258      22.29206792        3      -0.00000297       0.00000135      -0.28044900
Pt       4.21082126       0.81037248      22.29206794        3      -0.03856385      -0.00521744      -0.06506822
Pt       7.01803474       0.81037256      22.29206786        3       0.03311518      -0.01020796      -0.06619841
Pt       2.80721448       3.24149124      22.29206779        3      -0.02536406      -0.02363525      -0.06623434
Pt       5.61442762       3.24149125      22.29206790        3       0.00000444       0.00000176      -0.01227507
Pt       8.42164155       3.24149130      22.29206809        3       0.02383246      -0.03088331      -0.06512266
Pt       4.21082091       5.67260997      22.29206801        3       0.01473526       0.03610679      -0.06512751
Pt       7.01803488       5.67261037      22.29206781        3      -0.00776206       0.03384221      -0.06614906
Pt       9.82524819       5.67261065      22.29206808        3       0.00000530      -0.00001158      -0.07464478
Pt      -0.00000056       1.62074567      24.58417371        2      -0.09317617       0.05522882       0.13472976
Pt       2.80721444       1.62074547      24.58417389        2       0.09435218       0.05301376       0.13474625
Pt       5.61442780       1.62074536      24.58417372        2       0.00011531       0.06976220       0.16784425
Pt       1.40360637       4.05186441      24.58417386        2       0.00247820      -0.03167906      -0.06475475
Pt       4.21082088       4.05186402      24.58417378        2       0.06040251      -0.03496616       0.16789638
Pt       7.01803505       4.05186404      24.58417403        2      -0.06050124      -0.03478992       0.16793847
Pt       2.80721282       6.48298342      24.58417366        2       0.02620308       0.01806710      -0.06487230
Pt       5.61442796       6.48298327      24.58417384        2      -0.00119433      -0.10823619       0.13472012
Pt       8.42164224       6.48298339      24.58417376        2      -0.02868074       0.01360822      -0.06481015
Pt       0.00282670       0.00033139      26.91103761        1       0.00139934       0.00372463      -0.01239829
Pt       2.80551586       0.00228453      26.91103588        1      -0.00393062      -0.00065582      -0.01239191
Pt       5.61544299      -0.02615259      26.90106743        1      -0.00007232       0.01722827      -0.00424997
Pt       1.40247935       2.42850758      26.91103767        1       0.00252604      -0.00307388      -0.01239950
Pt       4.18688018       2.41619213      27.01816835        1       0.01180179       0.00460881      -0.00611171
Pt       7.04293244       2.41785107      27.01816896        1      -0.00988700       0.00791308      -0.00611917
Pt       2.78405383       4.87443929      26.90105864        1       0.01496775      -0.00855555      -0.00422545
Pt       5.61346991       4.89043197      27.01816447        1      -0.00191272      -0.01251108      -0.00610186
Pt       8.44378539       4.87619750      26.90105789        1      -0.01489026      -0.00868731      -0.00422406
O        5.61442728       3.24149253      29.54575355        0      -0.00000072       0.00000074      -0.01642510
C        5.61442769       3.24149017      28.34420403        0      -0.00000062       0.00000499       0.00776296
