38
Lattice="8.421641763931781 0.0 0.0 4.2108208819658905 7.293355709136913 0.0 0.0 0.0 46.87624170604845" Properties=species:S:1:pos:R:3:tags:I:1:forces:R:3 charge=0 spin=0 energy=-202.91206264138927 free_energy=-202.91206264138927 stress="0.009984048083424568 7.009240299282737e-09 -9.731118133515793e-10 7.009240299282737e-09 0.009984071366488934 4.131895892101056e-08 -9.731118133515793e-10 4.131895892101056e-08 -0.000300973275443539" pbc="T T T"
Pt      -0.00000000       0.00000021      19.95723433        4      -0.01525299      -0.00890649       0.01067554
Pt       2.80721396      -0.00000008      19.95723446        4       0.01529592      -0.00877070       0.01067573
Pt       5.61442779      -0.00000016      19.95723449        4      -0.00267882       0.00279318       0.01343584
Pt       1.40360720       2.43111835      19.95723435        4      -0.00004499       0.01768034       0.01065317
Pt       4.21082080       2.43111834      19.95723443        4      -0.00094455      -0.00091819       0.01727167
Pt       7.01803483       2.43111844      19.95723431        4       0.00129441      -0.00036510       0.01722056
Pt       2.80721405       4.86223724      19.95723403        4       0.00378236       0.00091788       0.01346905
Pt       5.61442805       4.86223734      19.95723421        4      -0.00035076       0.00128403       0.01727692
Pt       8.42164144       4.86223725      19.95723437        4      -0.00110145      -0.00371645       0.01341688
Pt       1.40360728       0.81037258      22.29206792        3      -0.00000366       0.00000182      -0.27931976
Pt       4.21082126       0.81037248      22.29206794        3      -0.03834849      -0.00538058      -0.06507660
Pt       7.01803474       0.81037256      22.29206786        3       0.03303017      -0.01040779      -0.06643043
Pt       2.80721448       3.24149124      22.29206779        3      -0.02549477      -0.02346242      -0.06646310
Pt       5.61442762       3.24149125      22.29206790        3       0.00000485       0.00000123      -0.01061802
Pt       8.42164155       3.24149130      22.29206809        3       0.02386538      -0.03061074      -0.06513318
Pt       4.21082091       5.67260997      22.29206801        3       0.01448801       0.03599915      -0.06513315
Pt       7.01803488       5.67261037      22.29206781        3      -0.00754643       0.03387125      -0.06637156
Pt       9.82524819       5.67261065      22.29206808        3       0.00000581      -0.00001039      -0.07606834
Pt      -0.00000056       1.62074567      24.58417371        2      -0.09206349       0.05484631       0.12830538
Pt       2.80721444       1.62074547      24.58417389        2       0.09345937       0.05225351       0.12831196
Pt       5.61442780       1.62074536      24.58417372        2       0.00036323       0.06672616       0.15598656
Pt       1.40360637       4.05186441      24.58417386        2       0.00225054      -0.02791088      -0.05021325
Pt       4.21082088       4.05186402      24.58417378        2       0.05764265      -0.03366585       0.15602966
Pt       7.01803505       4.05186404      24.58417403        2      -0.05799031      -0.03305166       0.15607540
Pt       2.80721282       6.48298342      24.58417366        2       0.02305578       0.01596967      -0.05033870
Pt       5.61442796       6.48298327      24.58417384        2      -0.00141235      -0.10708474       0.12827374
Pt       8.42164224       6.48298339      24.58417376        2      -0.02530179       0.01191772      -0.05028095
Pt       0.00654164       0.00254024      26.91239827        1      -0.02384693      -0.01069265      -0.01477188
Pt       2.80174327       0.00439515      26.91239611        1       0.02119374      -0.01530042      -0.01476542
Pt       5.61607292      -0.01968571      26.90198529        1      -0.00170993      -0.03630191      -0.01518649
Pt       1.40253868       2.42418453      26.91240913        1       0.00264229       0.02600146      -0.01480356
Pt       4.18761626       2.41599044      27.01293193        1       0.02510315       0.01400127       0.03319590
Pt       7.04273878       2.41859053      27.01293234        1      -0.02467461       0.01472246       0.03319306
Pt       2.78934353       4.87065665      26.90198701        1      -0.03059176       0.01963366      -0.01519408
Pt       5.61292699       4.88989487      27.01292427        1      -0.00041279      -0.02873421       0.03321680
Pt       8.43787075       4.87350522      26.90198523        1       0.03228823       0.01666844      -0.01518972
O        5.61442608       3.24149513      29.54890364        0      -0.00000050      -0.00000023      -0.04347572
C        5.61442508       3.24149148      28.34771585        0       0.00000552       0.00000147      -0.03184984
