38
Lattice="8.421641763931781 0.0 0.0 4.2108208819658905 7.293355709136913 0.0 0.0 0.0 46.87624170604845" Properties=species:S:1:pos:R:3:tags:I:1:forces:R:3 charge=0 spin=0 energy=-202.91278838754405 free_energy=-202.91278838754405 stress="0.009971553459763527 4.0136968748605284e-10 -4.763738709057108e-11 4.0136968748605284e-10 0.009971559047698975 3.426128358796632e-08 -4.763738709057108e-11 3.426128358796632e-08 -0.000331708462908864" pbc="T T T"
Pt      -0.00000000       0.00000021      19.95723433        4      -0.01513327      -0.00894288       0.01087211
Pt       2.80721396      -0.00000008      19.95723446        4       0.01526802      -0.00864868       0.01087310
Pt       5.61442779      -0.00000016      19.95723449        4      -0.00261625       0.00265535       0.01326799
Pt       1.40360720       2.43111835      19.95723435        4      -0.00013681       0.01759439       0.01084972
Pt       4.21082080       2.43111834      19.95723443        4      -0.00120517      -0.00103750       0.01745173
Pt       7.01803483       2.43111844      19.95723431        4       0.00152769      -0.00053182       0.01739993
Pt       2.80721405       4.86223724      19.95723403        4       0.00363181       0.00093321       0.01329869
Pt       5.61442805       4.86223734      19.95723421        4      -0.00032255       0.00156944       0.01745479
Pt       8.42164144       4.86223725      19.95723437        4      -0.00101315      -0.00359369       0.01324670
Pt       1.40360728       0.81037258      22.29206792        3      -0.00000313       0.00000182      -0.28044820
Pt       4.21082126       0.81037248      22.29206794        3      -0.03856390      -0.00521766      -0.06506795
Pt       7.01803474       0.81037256      22.29206786        3       0.03311479      -0.01020758      -0.06619810
Pt       2.80721448       3.24149124      22.29206779        3      -0.02536390      -0.02363520      -0.06623365
Pt       5.61442762       3.24149125      22.29206790        3       0.00000456       0.00000143      -0.01227441
Pt       8.42164155       3.24149130      22.29206809        3       0.02383223      -0.03088308      -0.06512222
Pt       4.21082091       5.67260997      22.29206801        3       0.01473532       0.03610710      -0.06512778
Pt       7.01803488       5.67261037      22.29206781        3      -0.00776206       0.03384212      -0.06614871
Pt       9.82524819       5.67261065      22.29206808        3       0.00000546      -0.00001187      -0.07464460
Pt      -0.00000056       1.62074567      24.58417371        2      -0.09317616       0.05522912       0.13473082
Pt       2.80721444       1.62074547      24.58417389        2       0.09435423       0.05301458       0.13474998
Pt       5.61442780       1.62074536      24.58417372        2       0.00011408       0.06976333       0.16784672
Pt       1.40360637       4.05186441      24.58417386        2       0.00247832      -0.03167940      -0.06475514
Pt       4.21082088       4.05186402      24.58417378        2       0.06040361      -0.03496698       0.16789976
Pt       7.01803505       4.05186404      24.58417403        2      -0.06050264      -0.03478948       0.16794024
Pt       2.80721282       6.48298342      24.58417366        2       0.02620336       0.01806669      -0.06487370
Pt       5.61442796       6.48298327      24.58417384        2      -0.00119404      -0.10823789       0.13472371
Pt       8.42164224       6.48298339      24.58417376        2      -0.02868038       0.01360893      -0.06480949
Pt       0.00282632       0.00033116      26.91103672        1       0.00140163       0.00372575      -0.01239840
Pt       2.80551625       0.00228427      26.91103567        1      -0.00393204      -0.00065383      -0.01239218
Pt       5.61544304      -0.02615283      26.90106738        1      -0.00007695       0.01723323      -0.00424918
Pt       1.40247958       2.42850797      26.91103770        1       0.00252630      -0.00307678      -0.01240026
Pt       4.18688044       2.41619229      27.01816909        1       0.01180185       0.00460644      -0.00611677
Pt       7.04293210       2.41785151      27.01816945        1      -0.00988770       0.00791343      -0.00611607
Pt       2.78405383       4.87443942      26.90105830        1       0.01497008      -0.00855778      -0.00422482
Pt       5.61346992       4.89043163      27.01816495        1      -0.00191188      -0.01251036      -0.00610799
Pt       8.44378530       4.87619757      26.90105773        1      -0.01489098      -0.00868821      -0.00422410
O        5.61442731       3.24149242      29.54575492        0       0.00000068      -0.00000001      -0.01629278
C        5.61442767       3.24149028      28.34420684        0      -0.00000111       0.00000419       0.00762042
