38
Lattice="8.421641763931781 0.0 0.0 4.2108208819658905 7.293355709136913 0.0 0.0 0.0 46.87624170604845" Properties=species:S:1:pos:R:3:tags:I:1:forces:R:3 charge=0 spin=0 energy=-202.91205978036632 free_energy=-202.91205978036632 stress="0.00998404435813427 5.864047469827938e-09 -1.8517930522321535e-09 5.864047469827938e-09 0.009984070435166359 3.872180087682864e-08 -1.8517930522321535e-09 3.872180087682864e-08 -0.00030085165053606033" pbc="T T T"
Pt      -0.00000000       0.00000021      19.95723433        4      -0.01525291      -0.00890638       0.01067544
Pt       2.80721396      -0.00000008      19.95723446        4       0.01529588      -0.00877066       0.01067563
Pt       5.61442779      -0.00000016      19.95723449        4      -0.00267875       0.00279331       0.01343588
Pt       1.40360720       2.43111835      19.95723435        4      -0.00004504       0.01768023       0.01065307
Pt       4.21082080       2.43111834      19.95723443        4      -0.00094463      -0.00091819       0.01727152
Pt       7.01803483       2.43111844      19.95723431        4       0.00129473      -0.00036517       0.01722050
Pt       2.80721405       4.86223724      19.95723403        4       0.00378252       0.00091804       0.01346913
Pt       5.61442805       4.86223734      19.95723421        4      -0.00035079       0.00128416       0.01727692
Pt       8.42164144       4.86223725      19.95723437        4      -0.00110141      -0.00371652       0.01341678
Pt       1.40360728       0.81037258      22.29206792        3      -0.00000382       0.00000176      -0.27932051
Pt       4.21082126       0.81037248      22.29206794        3      -0.03834860      -0.00538069      -0.06507645
Pt       7.01803474       0.81037256      22.29206786        3       0.03302997      -0.01040788      -0.06642979
Pt       2.80721448       3.24149124      22.29206779        3      -0.02549481      -0.02346263      -0.06646311
Pt       5.61442762       3.24149125      22.29206790        3       0.00000456       0.00000094      -0.01061845
Pt       8.42164155       3.24149130      22.29206809        3       0.02386530      -0.03061081      -0.06513278
Pt       4.21082091       5.67260997      22.29206801        3       0.01448790       0.03599912      -0.06513311
Pt       7.01803488       5.67261037      22.29206781        3      -0.00754661       0.03387099      -0.06637122
Pt       9.82524819       5.67261065      22.29206808        3       0.00000572      -0.00001043      -0.07606845
Pt      -0.00000056       1.62074567      24.58417371        2      -0.09206302       0.05484640       0.12830454
Pt       2.80721444       1.62074547      24.58417389        2       0.09345891       0.05225336       0.12831143
Pt       5.61442780       1.62074536      24.58417372        2       0.00036309       0.06672633       0.15598693
Pt       1.40360637       4.05186441      24.58417386        2       0.00224984      -0.02791080      -0.05021220
Pt       4.21082088       4.05186402      24.58417378        2       0.05764287      -0.03366597       0.15603010
Pt       7.01803505       4.05186404      24.58417403        2      -0.05799046      -0.03305208       0.15607540
Pt       2.80721282       6.48298342      24.58417366        2       0.02305578       0.01596950      -0.05033862
Pt       5.61442796       6.48298327      24.58417384        2      -0.00141233      -0.10708391       0.12827262
Pt       8.42164224       6.48298339      24.58417376        2      -0.02530142       0.01191774      -0.05028077
Pt       0.00654157       0.00254031      26.91239804        1      -0.02384756      -0.01069283      -0.01477140
Pt       2.80174318       0.00439525      26.91239611        1       0.02119372      -0.01529998      -0.01476538
Pt       5.61607319      -0.01968533      26.90198533        1      -0.00171030      -0.03630318      -0.01518677
Pt       1.40253869       2.42418443      26.91240890        1       0.00264130       0.02600361      -0.01480407
Pt       4.18761604       2.41599028      27.01293146        1       0.02510661       0.01400288       0.03319933
Pt       7.04273913       2.41859037      27.01293204        1      -0.02467690       0.01472433       0.03319575
Pt       2.78934362       4.87065654      26.90198697        1      -0.03059384       0.01963386      -0.01519476
Pt       5.61292697       4.88989524      27.01292418        1      -0.00041384      -0.02873862       0.03322050
Pt       8.43787040       4.87350503      26.90198527        1       0.03229374       0.01666853      -0.01518962
O        5.61442616       3.24149524      29.54890559        0      -0.00000072      -0.00000054      -0.04375925
C        5.61442516       3.24149136      28.34771291        0       0.00000533       0.00000205      -0.03157475
