38
Lattice="8.421641763931781 0.0 0.0 4.2108208819658905 7.293355709136913 0.0 0.0 0.0 46.87624170604845" Properties=species:S:1:pos:R:3:tags:I:1:forces:R:3 charge=0 spin=0 energy=-202.91268348336925 free_energy=-202.91268348336925 stress="0.009917971678078175 5.849318363004841e-09 2.625639705655658e-09 5.849318363004841e-09 0.009917986579239368 4.1360411984214807e-08 2.625639705655658e-09 4.1360411984214807e-08 -0.0004363079206086695" pbc="T T T"
Pt      -0.00000000       0.00000021      19.95723433        4      -0.01510520      -0.00890248       0.01075510
Pt       2.80721396      -0.00000008      19.95723446        4       0.01521834      -0.00864520       0.01075563
Pt       5.61442779      -0.00000016      19.95723449        4      -0.00268128       0.00268505       0.01332002
Pt       1.40360720       2.43111835      19.95723435        4      -0.00011502       0.01755056       0.01073252
Pt       4.21082080       2.43111834      19.95723443        4      -0.00086599      -0.00082347       0.01724115
Pt       7.01803483       2.43111844      19.95723431        4       0.00117359      -0.00034443       0.01718952
Pt       2.80721405       4.86223724      19.95723403        4       0.00369096       0.00097505       0.01335098
Pt       5.61442805       4.86223734      19.95723421        4      -0.00030847       0.00116908       0.01724448
Pt       8.42164144       4.86223725      19.95723437        4      -0.00100737      -0.00366561       0.01329882
Pt       1.40360728       0.81037258      22.29206792        3      -0.00000352       0.00000246      -0.28144065
Pt       4.21082126       0.81037248      22.29206794        3      -0.03870822      -0.00531101      -0.06537883
Pt       7.01803474       0.81037256      22.29206786        3       0.03318564      -0.01032789      -0.06679131
Pt       2.80721448       3.24149124      22.29206779        3      -0.02550424      -0.02363652      -0.06682875
Pt       5.61442762       3.24149125      22.29206790        3       0.00000405       0.00000126      -0.00961191
Pt       8.42164155       3.24149130      22.29206809        3       0.02398499      -0.03096000      -0.06543778
Pt       4.21082091       5.67260997      22.29206801        3       0.01472626       0.03627850      -0.06543770
Pt       7.01803488       5.67261037      22.29206781        3      -0.00769375       0.03396481      -0.06673910
Pt       9.82524819       5.67261065      22.29206808        3       0.00000485      -0.00001056      -0.07412419
Pt      -0.00000056       1.62074567      24.58417371        2      -0.09296115       0.05537334       0.12028162
Pt       2.80721444       1.62074547      24.58417389        2       0.09435892       0.05276248       0.12029652
Pt       5.61442780       1.62074536      24.58417372        2       0.00032715       0.07095976       0.15456524
Pt       1.40360637       4.05186441      24.58417386        2       0.00229644      -0.02609909      -0.06616383
Pt       4.21082088       4.05186402      24.58417378        2       0.06132561      -0.03574544       0.15463185
Pt       7.01803505       4.05186404      24.58417403        2      -0.06163670      -0.03519259       0.15467957
Pt       2.80721282       6.48298342      24.58417366        2       0.02147793       0.01509897      -0.06630879
Pt       5.61442796       6.48298327      24.58417384        2      -0.00142366      -0.10812797       0.12026209
Pt       8.42164224       6.48298339      24.58417376        2      -0.02375860       0.01097020      -0.06624643
Pt       0.00320833       0.00122517      26.90697762        1      -0.00552245      -0.00224960       0.00032790
Pt       2.80455474       0.00216193      26.90697068        1       0.00470007      -0.00364739       0.00034215
Pt       5.61584274      -0.01931907      26.89883940        1      -0.00118032      -0.03353244      -0.00262054
Pt       1.40305734       2.42773314      26.90698495        1       0.00083688       0.00590109       0.00030492
Pt       4.18681205       2.41519794      27.01570330        1       0.00651264       0.00373764      -0.00287314
Pt       7.04381832       2.41829366      27.01570535        1      -0.00645352       0.00374895      -0.00289097
Pt       2.78978240       4.87067730      26.89885051        1      -0.02847421       0.01776803      -0.00265990
Pt       5.61264378       4.89098469      27.01570429        1      -0.00001782      -0.00748187      -0.00288906
Pt       8.43767558       4.87311781      26.89884913        1       0.02960134       0.01575935      -0.00265372
O        5.61442540       3.24149307      29.53989961        0      -0.00000628      -0.00000457       0.01430570
C        5.61442359       3.24149175      28.33849957        0       0.00000171       0.00000156       0.01321087
