38
Lattice="8.421641763931781 0.0 0.0 4.2108208819658905 7.293355709136913 0.0 0.0 0.0 46.87624170604845" Properties=species:S:1:pos:R:3:tags:I:1:forces:R:3 charge=0 spin=0 energy=-202.91224002481212 free_energy=-202.91224002481212 stress="0.009914921596646309 5.460837115833783e-09 7.045921179837933e-09 5.460837115833783e-09 0.009914932772517204 3.62740806281181e-08 7.045921179837933e-09 3.62740806281181e-08 -0.00044919998617842793" pbc="T T T"
Pt      -0.00000000       0.00000021      19.95723433        4      -0.01509352      -0.00889709       0.01065188
Pt       2.80721396      -0.00000008      19.95723446        4       0.01520718      -0.00863741       0.01065264
Pt       5.61442779      -0.00000016      19.95723449        4      -0.00268178       0.00254194       0.01324685
Pt       1.40360720       2.43111835      19.95723435        4      -0.00011577       0.01753758       0.01062775
Pt       4.21082080       2.43111834      19.95723443        4      -0.00072737      -0.00061592       0.01699637
Pt       7.01803483       2.43111844      19.95723431        4       0.00092517      -0.00032757       0.01694368
Pt       2.80721405       4.86223724      19.95723403        4       0.00356657       0.00104515       0.01327670
Pt       5.61442805       4.86223734      19.95723421        4      -0.00019731       0.00094508       0.01699913
Pt       8.42164144       4.86223725      19.95723437        4      -0.00088333      -0.00359356       0.01322363
Pt       1.40360728       0.81037258      22.29206792        3      -0.00000325       0.00000176      -0.28189158
Pt       4.21082126       0.81037248      22.29206794        3      -0.03930442      -0.00576823      -0.06578056
Pt       7.01803474       0.81037256      22.29206786        3       0.03379193      -0.01058653      -0.06688850
Pt       2.80721448       3.24149124      22.29206779        3      -0.02602982      -0.02403413      -0.06692962
Pt       5.61442762       3.24149125      22.29206790        3       0.00000396      -0.00000003      -0.00723763
Pt       8.42164155       3.24149130      22.29206809        3       0.02467768      -0.03125056      -0.06583089
Pt       4.21082091       5.67260997      22.29206801        3       0.01463045       0.03702531      -0.06584255
Pt       7.01803488       5.67261037      22.29206781        3      -0.00777358       0.03461981      -0.06683529
Pt       9.82524819       5.67261065      22.29206808        3       0.00000563      -0.00000994      -0.07234532
Pt      -0.00000056       1.62074567      24.58417371        2      -0.09373632       0.05536523       0.13137627
Pt       2.80721444       1.62074547      24.58417389        2       0.09471829       0.05344899       0.13140568
Pt       5.61442780       1.62074536      24.58417372        2       0.00058285       0.07584356       0.14731781
Pt       1.40360637       4.05186441      24.58417386        2       0.00295826      -0.02852777      -0.08111478
Pt       4.21082088       4.05186402      24.58417378        2       0.06542016      -0.03840216       0.14739440
Pt       7.01803505       4.05186404      24.58417403        2      -0.06597612      -0.03740512       0.14743707
Pt       2.80721282       6.48298342      24.58417366        2       0.02323901       0.01690842      -0.08128108
Pt       5.61442796       6.48298327      24.58417384        2      -0.00099683      -0.10879595       0.13135803
Pt       8.42164224       6.48298339      24.58417376        2      -0.02620585       0.01156979      -0.08119851
Pt      -0.00162786      -0.00145835      26.90726247        1       0.02674861       0.01730545      -0.00430243
Pt       2.80931841      -0.00068599      26.90727383        1      -0.02845377       0.01451304      -0.00432921
Pt       5.61502834      -0.01796610      26.89432750        1       0.00197215      -0.03845287       0.01697425
Pt       1.40315195       2.43327324      26.90728801        1       0.00164009      -0.03185963      -0.00436506
Pt       4.19044164       2.41676281      27.01639053        1      -0.02167547      -0.00956365       0.00068635
Pt       7.04065062       2.42065946      27.01639460        1       0.01916738      -0.01402682       0.00066108
Pt       2.79134220       4.87070828      26.89433405        1      -0.03422983       0.01750338       0.01694225
Pt       5.61218022       4.88705861      27.01639147        1       0.00253687       0.02360909       0.00066311
Pt       8.43690628       4.87173206      26.89435448        1       0.03230022       0.02097084       0.01688264
O        5.61442432       3.24149251      29.54616094        0      -0.00000858      -0.00000336       0.00903470
C        5.61442286       3.24149189      28.34500110        0       0.00000043       0.00000397      -0.00457929
