38
Lattice="8.421641763931781 0.0 0.0 4.2108208819658905 7.293355709136913 0.0 0.0 0.0 46.87624170604845" Properties=species:S:1:pos:R:3:tags:I:1:forces:R:3 charge=0 spin=0 energy=-202.91206264138927 free_energy=-202.91206264138927 stress="0.009984046220779419 5.282245751914161e-09 -2.891247241620931e-09 5.282245751914161e-09 0.009984074160456657 3.7294359600537064e-08 -2.891247241620931e-09 3.7294359600537064e-08 -0.0003008502535521984" pbc="T T T"
Pt      -0.00000000       0.00000021      19.95723433        4      -0.01525292      -0.00890646       0.01067550
Pt       2.80721396      -0.00000008      19.95723446        4       0.01529587      -0.00877055       0.01067584
Pt       5.61442779      -0.00000016      19.95723449        4      -0.00267878       0.00279325       0.01343561
Pt       1.40360720       2.43111835      19.95723435        4      -0.00004500       0.01768021       0.01065315
Pt       4.21082080       2.43111834      19.95723443        4      -0.00094457      -0.00091802       0.01727150
Pt       7.01803483       2.43111844      19.95723431        4       0.00129468      -0.00036503       0.01722044
Pt       2.80721405       4.86223724      19.95723403        4       0.00378252       0.00091801       0.01346911
Pt       5.61442805       4.86223734      19.95723421        4      -0.00035067       0.00128420       0.01727690
Pt       8.42164144       4.86223725      19.95723437        4      -0.00110152      -0.00371653       0.01341680
Pt       1.40360728       0.81037258      22.29206792        3      -0.00000349       0.00000177      -0.27932036
Pt       4.21082126       0.81037248      22.29206794        3      -0.03834937      -0.00538110      -0.06507668
Pt       7.01803474       0.81037256      22.29206786        3       0.03303013      -0.01040810      -0.06643026
Pt       2.80721448       3.24149124      22.29206779        3      -0.02549507      -0.02346281      -0.06646292
Pt       5.61442762       3.24149125      22.29206790        3       0.00000463       0.00000098      -0.01061822
Pt       8.42164155       3.24149130      22.29206809        3       0.02386490      -0.03061052      -0.06513271
Pt       4.21082091       5.67260997      22.29206801        3       0.01448775       0.03599888      -0.06513351
Pt       7.01803488       5.67261037      22.29206781        3      -0.00754655       0.03387078      -0.06637127
Pt       9.82524819       5.67261065      22.29206808        3       0.00000562      -0.00001073      -0.07606822
Pt      -0.00000056       1.62074567      24.58417371        2      -0.09206297       0.05484634       0.12830484
Pt       2.80721444       1.62074547      24.58417389        2       0.09345917       0.05225356       0.12831171
Pt       5.61442780       1.62074536      24.58417372        2       0.00036329       0.06672617       0.15598680
Pt       1.40360637       4.05186441      24.58417386        2       0.00225030      -0.02791062      -0.05021302
Pt       4.21082088       4.05186402      24.58417378        2       0.05764252      -0.03366601       0.15602949
Pt       7.01803505       4.05186404      24.58417403        2      -0.05799015      -0.03305167       0.15607618
Pt       2.80721282       6.48298342      24.58417366        2       0.02305627       0.01596978      -0.05033978
Pt       5.61442796       6.48298327      24.58417384        2      -0.00141200      -0.10708381       0.12827356
Pt       8.42164224       6.48298339      24.58417376        2      -0.02530175       0.01191779      -0.05028129
Pt       0.00654133       0.00254015      26.91239783        1      -0.02384510      -0.01069249      -0.01477140
Pt       2.80174349       0.00439499      26.91239623        1       0.02119234      -0.01529906      -0.01476527
Pt       5.61607274      -0.01968617      26.90198537        1      -0.00171027      -0.03629872      -0.01518622
Pt       1.40253855       2.42418472      26.91240900        1       0.00264390       0.02600052      -0.01480367
Pt       4.18761614       2.41599032      27.01293180        1       0.02510445       0.01400228       0.03319845
Pt       7.04273952       2.41859005      27.01293241        1      -0.02467877       0.01472739       0.03319749
Pt       2.78934311       4.87065679      26.90198675        1      -0.03059208       0.01963148      -0.01519362
Pt       5.61292663       4.88989535      27.01292448        1      -0.00040932      -0.02873803       0.03321993
Pt       8.43787088       4.87350545      26.90198528        1       0.03228717       0.01666615      -0.01519001
O        5.61442608       3.24149528      29.54890648        0       0.00000063       0.00000004      -0.04376028
C        5.61442547       3.24149176      28.34771269        0       0.00000424       0.00000074      -0.03157478
