38
Lattice="8.421641763931781 0.0 0.0 4.2108208819658905 7.293355709136913 0.0 0.0 0.0 46.87624170604845" Properties=species:S:1:pos:R:3:tags:I:1:forces:R:3 charge=0 spin=0 energy=-202.91278838754405 free_energy=-202.91278838754405 stress="0.00997154787182808 8.598148304450604e-10 -6.852063361151295e-11 8.598148304450604e-10 0.009971561841666698 3.4529957559925606e-08 -6.852063361151295e-11 3.4529957559925606e-08 -0.0003317115770187229" pbc="T T T"
Pt      -0.00000000       0.00000021      19.95723433        4      -0.01513329      -0.00894287       0.01087228
Pt       2.80721396      -0.00000008      19.95723446        4       0.01526814      -0.00864860       0.01087321
Pt       5.61442779      -0.00000016      19.95723449        4      -0.00261636       0.00265533       0.01326792
Pt       1.40360720       2.43111835      19.95723435        4      -0.00013672       0.01759445       0.01084991
Pt       4.21082080       2.43111834      19.95723443        4      -0.00120512      -0.00103765       0.01745171
Pt       7.01803483       2.43111844      19.95723431        4       0.00152765      -0.00053162       0.01739989
Pt       2.80721405       4.86223724      19.95723403        4       0.00363181       0.00093330       0.01329886
Pt       5.61442805       4.86223734      19.95723421        4      -0.00032266       0.00156954       0.01745481
Pt       8.42164144       4.86223725      19.95723437        4      -0.00101319      -0.00359369       0.01324672
Pt       1.40360728       0.81037258      22.29206792        3      -0.00000310       0.00000151      -0.28044799
Pt       4.21082126       0.81037248      22.29206794        3      -0.03856350      -0.00521748      -0.06506712
Pt       7.01803474       0.81037256      22.29206786        3       0.03311523      -0.01020795      -0.06619908
Pt       2.80721448       3.24149124      22.29206779        3      -0.02536434      -0.02363526      -0.06623402
Pt       5.61442762       3.24149125      22.29206790        3       0.00000465       0.00000161      -0.01227511
Pt       8.42164155       3.24149130      22.29206809        3       0.02383200      -0.03088311      -0.06512211
Pt       4.21082091       5.67260997      22.29206801        3       0.01473534       0.03610652      -0.06512727
Pt       7.01803488       5.67261037      22.29206781        3      -0.00776204       0.03384204      -0.06614893
Pt       9.82524819       5.67261065      22.29206808        3       0.00000538      -0.00001177      -0.07464441
Pt      -0.00000056       1.62074567      24.58417371        2      -0.09317533       0.05522891       0.13472913
Pt       2.80721444       1.62074547      24.58417389        2       0.09435305       0.05301432       0.13474800
Pt       5.61442780       1.62074536      24.58417372        2       0.00011424       0.06976219       0.16784328
Pt       1.40360637       4.05186441      24.58417386        2       0.00247798      -0.03167911      -0.06475505
Pt       4.21082088       4.05186402      24.58417378        2       0.06040258      -0.03496633       0.16789646
Pt       7.01803505       4.05186404      24.58417403        2      -0.06050152      -0.03478876       0.16793774
Pt       2.80721282       6.48298342      24.58417366        2       0.02620359       0.01806687      -0.06487386
Pt       5.61442796       6.48298327      24.58417384        2      -0.00119390      -0.10823682       0.13472117
Pt       8.42164224       6.48298339      24.58417376        2      -0.02868055       0.01360915      -0.06481066
Pt       0.00282662       0.00033127      26.91103759        1       0.00140024       0.00372588      -0.01239814
Pt       2.80551593       0.00228446      26.91103605        1      -0.00393092      -0.00065483      -0.01239201
Pt       5.61544305      -0.02615295      26.90106750        1      -0.00007502       0.01723235      -0.00425253
Pt       1.40247956       2.42850779      26.91103817        1       0.00252430      -0.00307539      -0.01239634
Pt       4.18688058       2.41619245      27.01816815        1       0.01180557       0.00460934      -0.00610607
Pt       7.04293189       2.41785145      27.01816837        1      -0.00989158       0.00791573      -0.00610621
Pt       2.78405342       4.87443946      26.90105826        1       0.01496905      -0.00855747      -0.00422486
Pt       5.61347000       4.89043154      27.01816407        1      -0.00191131      -0.01251458      -0.00609714
Pt       8.44378562       4.87619765      26.90105789        1      -0.01489006      -0.00869032      -0.00422429
O        5.61442725       3.24149246      29.54575540        0       0.00000076      -0.00000016      -0.01630385
C        5.61442775       3.24149007      28.34420798        0      -0.00000110       0.00000516       0.00761600
