38
Lattice="8.421641763931781 0.0 0.0 4.2108208819658905 7.293355709136913 0.0 0.0 0.0 46.87624170604845" Properties=species:S:1:pos:R:3:tags:I:1:forces:R:3 charge=0 spin=0 energy=-202.91223621011486 free_energy=-202.91223621011486 stress="0.009914918802678585 6.151266607190564e-09 8.728884282049876e-09 6.151266607190564e-09 0.00991492997854948 3.626081124252778e-08 8.728884282049876e-09 3.626081124252778e-08 -0.0004491509171202779" pbc="T T T"
Pt      -0.00000000       0.00000021      19.95723433        4      -0.01509368      -0.00889695       0.01065184
Pt       2.80721396      -0.00000008      19.95723446        4       0.01520755      -0.00863750       0.01065262
Pt       5.61442779      -0.00000016      19.95723449        4      -0.00268187       0.00254200       0.01324682
Pt       1.40360720       2.43111835      19.95723435        4      -0.00011585       0.01753767       0.01062771
Pt       4.21082080       2.43111834      19.95723443        4      -0.00072745      -0.00061606       0.01699639
Pt       7.01803483       2.43111844      19.95723431        4       0.00092522      -0.00032766       0.01694385
Pt       2.80721405       4.86223724      19.95723403        4       0.00356641       0.00104516       0.01327662
Pt       5.61442805       4.86223734      19.95723421        4      -0.00019738       0.00094505       0.01699913
Pt       8.42164144       4.86223725      19.95723437        4      -0.00088316      -0.00359352       0.01322367
Pt       1.40360728       0.81037258      22.29206792        3      -0.00000335       0.00000199      -0.28189185
Pt       4.21082126       0.81037248      22.29206794        3      -0.03930438      -0.00576797      -0.06578061
Pt       7.01803474       0.81037256      22.29206786        3       0.03379190      -0.01058648      -0.06688855
Pt       2.80721448       3.24149124      22.29206779        3      -0.02602957      -0.02403399      -0.06692912
Pt       5.61442762       3.24149125      22.29206790        3       0.00000405       0.00000032      -0.00723816
Pt       8.42164155       3.24149130      22.29206809        3       0.02467724      -0.03125001      -0.06582969
Pt       4.21082091       5.67260997      22.29206801        3       0.01463047       0.03702522      -0.06584299
Pt       7.01803488       5.67261037      22.29206781        3      -0.00777347       0.03461949      -0.06683534
Pt       9.82524819       5.67261065      22.29206808        3       0.00000542      -0.00001000      -0.07234524
Pt      -0.00000056       1.62074567      24.58417371        2      -0.09373602       0.05536511       0.13137551
Pt       2.80721444       1.62074547      24.58417389        2       0.09471766       0.05344833       0.13140419
Pt       5.61442780       1.62074536      24.58417372        2       0.00058368       0.07584233       0.14731628
Pt       1.40360637       4.05186441      24.58417386        2       0.00295786      -0.02852857      -0.08111638
Pt       4.21082088       4.05186402      24.58417378        2       0.06541898      -0.03840176       0.14739133
Pt       7.01803505       4.05186404      24.58417403        2      -0.06597461      -0.03740533       0.14743602
Pt       2.80721282       6.48298342      24.58417366        2       0.02323933       0.01690872      -0.08128172
Pt       5.61442796       6.48298327      24.58417384        2      -0.00099703      -0.10879413       0.13135573
Pt       8.42164224       6.48298339      24.58417376        2      -0.02620620       0.01156997      -0.08119970
Pt      -0.00162774      -0.00145826      26.90726240        1       0.02674826       0.01730588      -0.00430238
Pt       2.80931852      -0.00068589      26.90727392        1      -0.02845374       0.01451340      -0.00432957
Pt       5.61502840      -0.01796680      26.89432737        1       0.00197187      -0.03844894       0.01697536
Pt       1.40315195       2.43327325      26.90728801        1       0.00163927      -0.03186076      -0.00436462
Pt       4.19044192       2.41676287      27.01638789        1      -0.02167793      -0.00956364       0.00069433
Pt       7.04065030       2.42065933      27.01639328        1       0.01917315      -0.01402765       0.00065995
Pt       2.79134169       4.87070851      26.89433524        1      -0.03422368       0.01750232       0.01694297
Pt       5.61218004       4.88705865      27.01638996        1       0.00253781       0.02360740       0.00066964
Pt       8.43690689       4.87173224      26.89435443        1       0.03229306       0.02096867       0.01688284
O        5.61442450       3.24149268      29.54616127        0      -0.00001131      -0.00000266       0.00889184
C        5.61442278       3.24149175      28.34499924        0       0.00000142       0.00000471      -0.00443866
