38
Lattice="8.421641763931781 0.0 0.0 4.2108208819658905 7.293355709136913 0.0 0.0 0.0 46.87624170604845" Properties=species:S:1:pos:R:3:tags:I:1:forces:R:3 charge=0 spin=0 energy=-202.91206264138927 free_energy=-202.91206264138927 stress="0.009984062984585762 3.295649975143533e-09 -3.018377991992338e-09 3.295649975143533e-09 0.009984085336327553 4.029446287745486e-08 -3.018377991992338e-09 4.029446287745486e-08 -0.0003008232160937041" pbc="T T T"
Pt      -0.00000000       0.00000021      19.95723433        4      -0.01525291      -0.00890646       0.01067561
Pt       2.80721396      -0.00000008      19.95723446        4       0.01529583      -0.00877053       0.01067559
Pt       5.61442779      -0.00000016      19.95723449        4      -0.00267863       0.00279314       0.01343580
Pt       1.40360720       2.43111835      19.95723435        4      -0.00004500       0.01768029       0.01065302
Pt       4.21082080       2.43111834      19.95723443        4      -0.00094456      -0.00091812       0.01727167
Pt       7.01803483       2.43111844      19.95723431        4       0.00129464      -0.00036517       0.01722063
Pt       2.80721405       4.86223724      19.95723403        4       0.00378240       0.00091804       0.01346913
Pt       5.61442805       4.86223734      19.95723421        4      -0.00035073       0.00128396       0.01727688
Pt       8.42164144       4.86223725      19.95723437        4      -0.00110146      -0.00371667       0.01341682
Pt       1.40360728       0.81037258      22.29206792        3      -0.00000387       0.00000209      -0.27932045
Pt       4.21082126       0.81037248      22.29206794        3      -0.03834878      -0.00538088      -0.06507613
Pt       7.01803474       0.81037256      22.29206786        3       0.03303002      -0.01040779      -0.06642968
Pt       2.80721448       3.24149124      22.29206779        3      -0.02549504      -0.02346267      -0.06646305
Pt       5.61442762       3.24149125      22.29206790        3       0.00000452       0.00000104      -0.01061787
Pt       8.42164155       3.24149130      22.29206809        3       0.02386481      -0.03061058      -0.06513219
Pt       4.21082091       5.67260997      22.29206801        3       0.01448709       0.03599944      -0.06513298
Pt       7.01803488       5.67261037      22.29206781        3      -0.00754650       0.03387085      -0.06637203
Pt       9.82524819       5.67261065      22.29206808        3       0.00000572      -0.00001043      -0.07606839
Pt      -0.00000056       1.62074567      24.58417371        2      -0.09206390       0.05484652       0.12830839
Pt       2.80721444       1.62074547      24.58417389        2       0.09346019       0.05225420       0.12831405
Pt       5.61442780       1.62074536      24.58417372        2       0.00036349       0.06672780       0.15599169
Pt       1.40360637       4.05186441      24.58417386        2       0.00225022      -0.02791190      -0.05021479
Pt       4.21082088       4.05186402      24.58417378        2       0.05764399      -0.03366668       0.15603462
Pt       7.01803505       4.05186404      24.58417403        2      -0.05799146      -0.03305228       0.15608028
Pt       2.80721282       6.48298342      24.58417366        2       0.02305706       0.01597003      -0.05034024
Pt       5.61442796       6.48298327      24.58417384        2      -0.00141198      -0.10708524       0.12827724
Pt       8.42164224       6.48298339      24.58417376        2      -0.02530263       0.01191794      -0.05028268
Pt       0.00654099       0.00253995      26.91239724        1      -0.02384290      -0.01069218      -0.01477216
Pt       2.80174394       0.00439477      26.91239514        1       0.02119084      -0.01529909      -0.01476499
Pt       5.61607274      -0.01968685      26.90198534        1      -0.00170884      -0.03629011      -0.01518543
Pt       1.40253871       2.42418524      26.91240802        1       0.00264291       0.02599736      -0.01480407
Pt       4.18761569       2.41598998      27.01293342        1       0.02511081       0.01400647       0.03319417
Pt       7.04273970       2.41859010      27.01293377        1      -0.02468494       0.01472832       0.03319217
Pt       2.78934251       4.87065723      26.90198655        1      -0.03058324       0.01962736      -0.01519362
Pt       5.61292690       4.88989589      27.01292626        1      -0.00041204      -0.02874390       0.03321513
Pt       8.43787163       4.87350576      26.90198468        1       0.03227945       0.01666419      -0.01518868
O        5.61442601       3.24149521      29.54890752        0      -0.00000033      -0.00000007      -0.04376397
C        5.61442517       3.24149144      28.34771470        0       0.00000583       0.00000144      -0.03157987
