38
Lattice="8.421641763931781 0.0 0.0 4.2108208819658905 7.293355709136913 0.0 0.0 0.0 46.87624170604845" Properties=species:S:1:pos:R:3:tags:I:1:forces:R:3 charge=0 spin=0 energy=-202.91223716378917 free_energy=-202.91223716378917 stress="0.009914925321936607 8.463745260200994e-09 1.0598957267404785e-08 8.463745260200994e-09 0.009914934635162354 3.490016808882501e-08 1.0598957267404785e-08 3.490016808882501e-08 -0.0004492147418204695" pbc="T T T"
Pt      -0.00000000       0.00000021      19.95723433        4      -0.01509352      -0.00889698       0.01065156
Pt       2.80721396      -0.00000008      19.95723446        4       0.01520735      -0.00863727       0.01065262
Pt       5.61442779      -0.00000016      19.95723449        4      -0.00268198       0.00254185       0.01324678
Pt       1.40360720       2.43111835      19.95723435        4      -0.00011593       0.01753735       0.01062788
Pt       4.21082080       2.43111834      19.95723443        4      -0.00072733      -0.00061619       0.01699624
Pt       7.01803483       2.43111844      19.95723431        4       0.00092523      -0.00032752       0.01694391
Pt       2.80721405       4.86223724      19.95723403        4       0.00356645       0.00104519       0.01327672
Pt       5.61442805       4.86223734      19.95723421        4      -0.00019723       0.00094500       0.01699908
Pt       8.42164144       4.86223725      19.95723437        4      -0.00088329      -0.00359345       0.01322361
Pt       1.40360728       0.81037258      22.29206792        3      -0.00000303       0.00000194      -0.28189218
Pt       4.21082126       0.81037248      22.29206794        3      -0.03930451      -0.00576799      -0.06578109
Pt       7.01803474       0.81037256      22.29206786        3       0.03379214      -0.01058649      -0.06688862
Pt       2.80721448       3.24149124      22.29206779        3      -0.02602951      -0.02403415      -0.06692930
Pt       5.61442762       3.24149125      22.29206790        3       0.00000401      -0.00000001      -0.00723711
Pt       8.42164155       3.24149130      22.29206809        3       0.02467790      -0.03125108      -0.06582992
Pt       4.21082091       5.67260997      22.29206801        3       0.01463081       0.03702523      -0.06584334
Pt       7.01803488       5.67261037      22.29206781        3      -0.00777335       0.03461991      -0.06683563
Pt       9.82524819       5.67261065      22.29206808        3       0.00000553      -0.00001018      -0.07234559
Pt      -0.00000056       1.62074567      24.58417371        2      -0.09373698       0.05536687       0.13137461
Pt       2.80721444       1.62074547      24.58417389        2       0.09471762       0.05344864       0.13140453
Pt       5.61442780       1.62074536      24.58417372        2       0.00058343       0.07584488       0.14731891
Pt       1.40360637       4.05186441      24.58417386        2       0.00295776      -0.02852795      -0.08111464
Pt       4.21082088       4.05186402      24.58417378        2       0.06542075      -0.03840265       0.14739467
Pt       7.01803505       4.05186404      24.58417403        2      -0.06597634      -0.03740661       0.14743918
Pt       2.80721282       6.48298342      24.58417366        2       0.02323719       0.01690806      -0.08128085
Pt       5.61442796       6.48298327      24.58417384        2      -0.00099607      -0.10879548       0.13135502
Pt       8.42164224       6.48298339      24.58417376        2      -0.02620587       0.01156918      -0.08119839
Pt      -0.00162778      -0.00145809      26.90726159        1       0.02674660       0.01730348      -0.00429710
Pt       2.80931855      -0.00068607      26.90727366        1      -0.02845278       0.01451250      -0.00432855
Pt       5.61502810      -0.01796545      26.89432750        1       0.00197532      -0.03845738       0.01697420
Pt       1.40315199       2.43327302      26.90728804        1       0.00163894      -0.03185806      -0.00436436
Pt       4.19044086       2.41676237      27.01638976        1      -0.02167142      -0.00956082       0.00068347
Pt       7.04065142       2.42065865      27.01639471        1       0.01916687      -0.01402355       0.00065044
Pt       2.79134274       4.87070820      26.89433408        1      -0.03423115       0.01750685       0.01694176
Pt       5.61218012       4.88705960      27.01639106        1       0.00253664       0.02360309       0.00065910
Pt       8.43690566       4.87173161      26.89435458        1       0.03229995       0.02097203       0.01688192
O        5.61442419       3.24149262      29.54615901        0      -0.00000991      -0.00000261       0.00904503
C        5.61442311       3.24149176      28.34500026        0      -0.00000058       0.00000437      -0.00457455
