38
Lattice="8.421641763931781 0.0 0.0 4.2108208819658905 7.293355709136913 0.0 0.0 0.0 46.87624170604845" Properties=species:S:1:pos:R:3:tags:I:1:forces:R:3 charge=0 spin=0 energy=-202.91278934121837 free_energy=-202.91278934121837 stress="0.009971532970666885 1.7472469027168813e-09 2.774581009390431e-09 1.7472469027168813e-09 0.009971554391086102 3.171288298631225e-08 2.774581009390431e-09 3.171288298631225e-08 -0.0003316739748697728" pbc="T T T"
Pt      -0.00000000       0.00000021      19.95723433        4      -0.01513340      -0.00894293       0.01087219
Pt       2.80721396      -0.00000008      19.95723446        4       0.01526818      -0.00864873       0.01087310
Pt       5.61442779      -0.00000016      19.95723449        4      -0.00261624       0.00265516       0.01326765
Pt       1.40360720       2.43111835      19.95723435        4      -0.00013707       0.01759434       0.01085001
Pt       4.21082080       2.43111834      19.95723443        4      -0.00120509      -0.00103761       0.01745167
Pt       7.01803483       2.43111844      19.95723431        4       0.00152767      -0.00053166       0.01739995
Pt       2.80721405       4.86223724      19.95723403        4       0.00363190       0.00093360       0.01329903
Pt       5.61442805       4.86223734      19.95723421        4      -0.00032252       0.00156958       0.01745500
Pt       8.42164144       4.86223725      19.95723437        4      -0.00101315      -0.00359377       0.01324653
Pt       1.40360728       0.81037258      22.29206792        3      -0.00000292       0.00000157      -0.28044885
Pt       4.21082126       0.81037248      22.29206794        3      -0.03856377      -0.00521741      -0.06506817
Pt       7.01803474       0.81037256      22.29206786        3       0.03311526      -0.01020798      -0.06619865
Pt       2.80721448       3.24149124      22.29206779        3      -0.02536386      -0.02363526      -0.06623377
Pt       5.61442762       3.24149125      22.29206790        3       0.00000447       0.00000193      -0.01227482
Pt       8.42164155       3.24149130      22.29206809        3       0.02383259      -0.03088336      -0.06512263
Pt       4.21082091       5.67260997      22.29206801        3       0.01473543       0.03610671      -0.06512740
Pt       7.01803488       5.67261037      22.29206781        3      -0.00776204       0.03384242      -0.06614887
Pt       9.82524819       5.67261065      22.29206808        3       0.00000531      -0.00001160      -0.07464471
Pt      -0.00000056       1.62074567      24.58417371        2      -0.09317572       0.05522886       0.13473025
Pt       2.80721444       1.62074547      24.58417389        2       0.09435211       0.05301381       0.13474709
Pt       5.61442780       1.62074536      24.58417372        2       0.00011524       0.06976216       0.16784474
Pt       1.40360637       4.05186441      24.58417386        2       0.00247841      -0.03167894      -0.06475409
Pt       4.21082088       4.05186402      24.58417378        2       0.06040295      -0.03496653       0.16789578
Pt       7.01803505       4.05186404      24.58417403        2      -0.06050155      -0.03479011       0.16793893
Pt       2.80721282       6.48298342      24.58417366        2       0.02620298       0.01806733      -0.06487306
Pt       5.61442796       6.48298327      24.58417384        2      -0.00119422      -0.10823551       0.13471957
Pt       8.42164224       6.48298339      24.58417376        2      -0.02868047       0.01360823      -0.06481043
Pt       0.00282647       0.00033126      26.91103727        1       0.00139869       0.00372692      -0.01239793
Pt       2.80551608       0.00228432      26.91103569        1      -0.00393161      -0.00065430      -0.01239172
Pt       5.61544291      -0.02615266      26.90106732        1      -0.00007197       0.01723056      -0.00424999
Pt       1.40247957       2.42850784      26.91103778        1       0.00252436      -0.00307532      -0.01239988
Pt       4.18688004       2.41619216      27.01816801        1       0.01180347       0.00460843      -0.00611120
Pt       7.04293242       2.41785112      27.01816856        1      -0.00988610       0.00791216      -0.00611992
Pt       2.78405408       4.87443924      26.90105844        1       0.01496477      -0.00855586      -0.00422586
Pt       5.61346995       4.89043221      27.01816381        1      -0.00191215      -0.01251438      -0.00610136
Pt       8.44378526       4.87619756      26.90105782        1      -0.01488834      -0.00868811      -0.00422454
O        5.61442735       3.24149244      29.54575346        0      -0.00000177       0.00000089      -0.01642703
C        5.61442761       3.24149018      28.34420361        0       0.00000008       0.00000494       0.00776353
