38
Lattice="8.421641763931781 0.0 0.0 4.2108208819658905 7.293355709136913 0.0 0.0 0.0 46.87624170604845" Properties=species:S:1:pos:R:3:tags:I:1:forces:R:3 charge=0 spin=0 energy=-202.91223716378917 free_energy=-202.91223716378917 stress="0.009914928115904331 7.436385729420181e-09 6.38399066943407e-09 7.436385729420181e-09 0.009914939291775227 3.5529012620827416e-08 6.38399066943407e-09 3.5529012620827416e-08 -0.0004491997533477843" pbc="T T T"
Pt      -0.00000000       0.00000021      19.95723433        4      -0.01509358      -0.00889695       0.01065177
Pt       2.80721396      -0.00000008      19.95723446        4       0.01520753      -0.00863727       0.01065260
Pt       5.61442779      -0.00000016      19.95723449        4      -0.00268185       0.00254194       0.01324695
Pt       1.40360720       2.43111835      19.95723435        4      -0.00011584       0.01753771       0.01062769
Pt       4.21082080       2.43111834      19.95723443        4      -0.00072743      -0.00061613       0.01699645
Pt       7.01803483       2.43111844      19.95723431        4       0.00092534      -0.00032768       0.01694397
Pt       2.80721405       4.86223724      19.95723403        4       0.00356654       0.00104514       0.01327668
Pt       5.61442805       4.86223734      19.95723421        4      -0.00019742       0.00094497       0.01699913
Pt       8.42164144       4.86223725      19.95723437        4      -0.00088321      -0.00359371       0.01322382
Pt       1.40360728       0.81037258      22.29206792        3      -0.00000357       0.00000207      -0.28189188
Pt       4.21082126       0.81037248      22.29206794        3      -0.03930443      -0.00576810      -0.06578045
Pt       7.01803474       0.81037256      22.29206786        3       0.03379165      -0.01058632      -0.06688839
Pt       2.80721448       3.24149124      22.29206779        3      -0.02602968      -0.02403402      -0.06692890
Pt       5.61442762       3.24149125      22.29206790        3       0.00000398       0.00000022      -0.00723801
Pt       8.42164155       3.24149130      22.29206809        3       0.02467724      -0.03125018      -0.06582974
Pt       4.21082091       5.67260997      22.29206801        3       0.01463043       0.03702525      -0.06584284
Pt       7.01803488       5.67261037      22.29206781        3      -0.00777354       0.03461963      -0.06683517
Pt       9.82524819       5.67261065      22.29206808        3       0.00000559      -0.00000997      -0.07234526
Pt      -0.00000056       1.62074567      24.58417371        2      -0.09373627       0.05536523       0.13137589
Pt       2.80721444       1.62074547      24.58417389        2       0.09471896       0.05344922       0.13140632
Pt       5.61442780       1.62074536      24.58417372        2       0.00058271       0.07584295       0.14731811
Pt       1.40360637       4.05186441      24.58417386        2       0.00295800      -0.02852869      -0.08111630
Pt       4.21082088       4.05186402      24.58417378        2       0.06541903      -0.03840270       0.14739293
Pt       7.01803505       4.05186404      24.58417403        2      -0.06597489      -0.03740547       0.14743634
Pt       2.80721282       6.48298342      24.58417366        2       0.02323927       0.01690874      -0.08128186
Pt       5.61442796       6.48298327      24.58417384        2      -0.00099676      -0.10879498       0.13135684
Pt       8.42164224       6.48298339      24.58417376        2      -0.02620626       0.01157008      -0.08119938
Pt      -0.00162769      -0.00145829      26.90726244        1       0.02674815       0.01730590      -0.00430241
Pt       2.80931830      -0.00068607      26.90727390        1      -0.02845400       0.01451349      -0.00432931
Pt       5.61502826      -0.01796682      26.89432726        1       0.00197194      -0.03844723       0.01697546
Pt       1.40315203       2.43327320      26.90728801        1       0.00164041      -0.03186094      -0.00436479
Pt       4.19044229       2.41676290      27.01638905        1      -0.02167893      -0.00956520       0.00068534
Pt       7.04065013       2.42065942      27.01639416        1       0.01917206      -0.01402614       0.00066062
Pt       2.79134177       4.87070867      26.89433543        1      -0.03422284       0.01750178       0.01694312
Pt       5.61218014       4.88705844      27.01638993        1       0.00253794       0.02360854       0.00066922
Pt       8.43690661       4.87173249      26.89435452        1       0.03229201       0.02096646       0.01688274
O        5.61442441       3.24149242      29.54616214        0      -0.00000852      -0.00000128       0.00903148
C        5.61442278       3.24149191      28.34500110        0       0.00000020       0.00000367      -0.00457872
