38
Lattice="8.421641763931781 0.0 0.0 4.2108208819658905 7.293355709136913 0.0 0.0 0.0 46.87624170604845" Properties=species:S:1:pos:R:3:tags:I:1:forces:R:3 charge=0 spin=0 energy=-202.9126806223463 free_energy=-202.9126806223463 stress="0.009917966090142727 4.8845585354229115e-09 1.3660713671370672e-09 4.8845585354229115e-09 0.009917978197336197 4.14607796983546e-08 1.3660713671370672e-09 4.14607796983546e-08 -0.00043632634333334863" pbc="T T T"
Pt      -0.00000000       0.00000021      19.95723433        4      -0.01510531      -0.00890256       0.01075525
Pt       2.80721396      -0.00000008      19.95723446        4       0.01521839      -0.00864522       0.01075563
Pt       5.61442779      -0.00000016      19.95723449        4      -0.00268114       0.00268513       0.01331996
Pt       1.40360720       2.43111835      19.95723435        4      -0.00011497       0.01755059       0.01073235
Pt       4.21082080       2.43111834      19.95723443        4      -0.00086598      -0.00082334       0.01724141
Pt       7.01803483       2.43111844      19.95723431        4       0.00117359      -0.00034442       0.01718941
Pt       2.80721405       4.86223724      19.95723403        4       0.00369106       0.00097502       0.01335090
Pt       5.61442805       4.86223734      19.95723421        4      -0.00030844       0.00116903       0.01724438
Pt       8.42164144       4.86223725      19.95723437        4      -0.00100726      -0.00366552       0.01329869
Pt       1.40360728       0.81037258      22.29206792        3      -0.00000356       0.00000242      -0.28144097
Pt       4.21082126       0.81037248      22.29206794        3      -0.03870829      -0.00531096      -0.06537911
Pt       7.01803474       0.81037256      22.29206786        3       0.03318555      -0.01032796      -0.06679112
Pt       2.80721448       3.24149124      22.29206779        3      -0.02550426      -0.02363659      -0.06682872
Pt       5.61442762       3.24149125      22.29206790        3       0.00000398       0.00000122      -0.00961219
Pt       8.42164155       3.24149130      22.29206809        3       0.02398482      -0.03096016      -0.06543779
Pt       4.21082091       5.67260997      22.29206801        3       0.01472624       0.03627851      -0.06543775
Pt       7.01803488       5.67261037      22.29206781        3      -0.00769368       0.03396473      -0.06673903
Pt       9.82524819       5.67261065      22.29206808        3       0.00000472      -0.00001058      -0.07412407
Pt      -0.00000056       1.62074567      24.58417371        2      -0.09296080       0.05537334       0.12028152
Pt       2.80721444       1.62074547      24.58417389        2       0.09435865       0.05276228       0.12029628
Pt       5.61442780       1.62074536      24.58417372        2       0.00032730       0.07095939       0.15456480
Pt       1.40360637       4.05186441      24.58417386        2       0.00229639      -0.02609935      -0.06616314
Pt       4.21082088       4.05186402      24.58417378        2       0.06132510      -0.03574524       0.15463130
Pt       7.01803505       4.05186404      24.58417403        2      -0.06163605      -0.03519252       0.15467893
Pt       2.80721282       6.48298342      24.58417366        2       0.02147792       0.01509904      -0.06630836
Pt       5.61442796       6.48298327      24.58417384        2      -0.00142366      -0.10812750       0.12026190
Pt       8.42164224       6.48298339      24.58417376        2      -0.02375864       0.01097015      -0.06624591
Pt       0.00320839       0.00122517      26.90697751        1      -0.00552215      -0.00224964       0.00032778
Pt       2.80455468       0.00216202      26.90697064        1       0.00470032      -0.00364727       0.00034160
Pt       5.61584269      -0.01931913      26.89883987        1      -0.00118063      -0.03353295      -0.00262075
Pt       1.40305738       2.42773298      26.90698491        1       0.00083614       0.00590157       0.00030449
Pt       4.18681224       2.41519804      27.01570369        1       0.00650240       0.00373130      -0.00287964
Pt       7.04381799       2.41829373      27.01570492        1      -0.00644260       0.00374459      -0.00289771
Pt       2.78978258       4.87067741      26.89885065        1      -0.02847483       0.01776794      -0.00266021
Pt       5.61264373       4.89098426      27.01570468        1      -0.00001750      -0.00747097      -0.00289568
Pt       8.43767561       4.87311803      26.89884929        1       0.02960166       0.01575936      -0.00265411
O        5.61442528       3.24149324      29.53989841        0      -0.00000644      -0.00000527       0.01432020
C        5.61442378       3.24149156      28.33849765        0       0.00000183       0.00000235       0.01321951
