38
Lattice="8.421641763931781 0.0 0.0 4.2108208819658905 7.293355709136913 0.0 0.0 0.0 46.87624170604845" Properties=species:S:1:pos:R:3:tags:I:1:forces:R:3 charge=0 spin=0 energy=-202.91278934121837 free_energy=-202.91278934121837 stress="0.009971528314054012 2.669660881249314e-10 -1.0308948139581275e-09 2.669660881249314e-10 0.009971546940505505 3.2034972008432305e-08 -1.0308948139581275e-09 3.2034972008432305e-08 -0.00033167493529617786" pbc="T T T"
Pt      -0.00000000       0.00000021      19.95723433        4      -0.01513319      -0.00894288       0.01087236
Pt       2.80721396      -0.00000008      19.95723446        4       0.01526821      -0.00864867       0.01087327
Pt       5.61442779      -0.00000016      19.95723449        4      -0.00261634       0.00265542       0.01326786
Pt       1.40360720       2.43111835      19.95723435        4      -0.00013691       0.01759437       0.01084999
Pt       4.21082080       2.43111834      19.95723443        4      -0.00120519      -0.00103750       0.01745180
Pt       7.01803483       2.43111844      19.95723431        4       0.00152780      -0.00053186       0.01740010
Pt       2.80721405       4.86223724      19.95723403        4       0.00363200       0.00093335       0.01329903
Pt       5.61442805       4.86223734      19.95723421        4      -0.00032264       0.00156953       0.01745483
Pt       8.42164144       4.86223725      19.95723437        4      -0.00101311      -0.00359374       0.01324661
Pt       1.40360728       0.81037258      22.29206792        3      -0.00000306       0.00000139      -0.28044859
Pt       4.21082126       0.81037248      22.29206794        3      -0.03856360      -0.00521759      -0.06506826
Pt       7.01803474       0.81037256      22.29206786        3       0.03311481      -0.01020771      -0.06619819
Pt       2.80721448       3.24149124      22.29206779        3      -0.02536420      -0.02363522      -0.06623413
Pt       5.61442762       3.24149125      22.29206790        3       0.00000471       0.00000164      -0.01227507
Pt       8.42164155       3.24149130      22.29206809        3       0.02383237      -0.03088352      -0.06512284
Pt       4.21082091       5.67260997      22.29206801        3       0.01473545       0.03610745      -0.06512798
Pt       7.01803488       5.67261037      22.29206781        3      -0.00776205       0.03384231      -0.06614874
Pt       9.82524819       5.67261065      22.29206808        3       0.00000541      -0.00001159      -0.07464457
Pt      -0.00000056       1.62074567      24.58417371        2      -0.09317584       0.05522895       0.13473000
Pt       2.80721444       1.62074547      24.58417389        2       0.09435324       0.05301438       0.13474806
Pt       5.61442780       1.62074536      24.58417372        2       0.00011430       0.06976262       0.16784638
Pt       1.40360637       4.05186441      24.58417386        2       0.00247819      -0.03167945      -0.06475468
Pt       4.21082088       4.05186402      24.58417378        2       0.06040233      -0.03496717       0.16789813
Pt       7.01803505       4.05186404      24.58417403        2      -0.06050150      -0.03479005       0.16793850
Pt       2.80721282       6.48298342      24.58417366        2       0.02620315       0.01806678      -0.06487263
Pt       5.61442796       6.48298327      24.58417384        2      -0.00119423      -0.10823600       0.13472009
Pt       8.42164224       6.48298339      24.58417376        2      -0.02868089       0.01360864      -0.06480993
Pt       0.00282700       0.00033137      26.91103743        1       0.00139785       0.00372507      -0.01239846
Pt       2.80551570       0.00228458      26.91103597        1      -0.00392982      -0.00065490      -0.01239193
Pt       5.61544296      -0.02615278      26.90106767        1      -0.00007294       0.01723126      -0.00425020
Pt       1.40247942       2.42850735      26.91103836        1       0.00252664      -0.00307321      -0.01239988
Pt       4.18688012       2.41619212      27.01816862        1       0.01179954       0.00460553      -0.00612124
Pt       7.04293259       2.41785116      27.01816915        1      -0.00988570       0.00791111      -0.00612043
Pt       2.78405371       4.87443924      26.90105849        1       0.01496854      -0.00855638      -0.00422562
Pt       5.61346993       4.89043210      27.01816456        1      -0.00191272      -0.01251033      -0.00610283
Pt       8.44378541       4.87619756      26.90105777        1      -0.01489004      -0.00868800      -0.00422410
O        5.61442719       3.24149272      29.54575374        0       0.00000105       0.00000177      -0.01642235
C        5.61442755       3.24149035      28.34420440        0      -0.00000143       0.00000421       0.00776595
