38
Lattice="8.421641763931781 0.0 0.0 4.2108208819658905 7.293355709136913 0.0 0.0 0.0 46.87624170604845" Properties=species:S:1:pos:R:3:tags:I:1:forces:R:3 charge=0 spin=0 energy=-202.91278838754405 free_energy=-202.91278838754405 stress="0.009971549734473228 2.1486166179585098e-09 1.109144887045943e-09 2.1486166179585098e-09 0.009971566498279572 3.281323301962402e-08 1.109144887045943e-09 3.281323301962402e-08 -0.00033176387660205364" pbc="T T T"
Pt      -0.00000000       0.00000021      19.95723433        4      -0.01513329      -0.00894283       0.01087217
Pt       2.80721396      -0.00000008      19.95723446        4       0.01526799      -0.00864878       0.01087340
Pt       5.61442779      -0.00000016      19.95723449        4      -0.00261626       0.00265522       0.01326794
Pt       1.40360720       2.43111835      19.95723435        4      -0.00013681       0.01759425       0.01084982
Pt       4.21082080       2.43111834      19.95723443        4      -0.00120501      -0.00103761       0.01745175
Pt       7.01803483       2.43111844      19.95723431        4       0.00152766      -0.00053180       0.01739989
Pt       2.80721405       4.86223724      19.95723403        4       0.00363193       0.00093342       0.01329880
Pt       5.61442805       4.86223734      19.95723421        4      -0.00032269       0.00156960       0.01745498
Pt       8.42164144       4.86223725      19.95723437        4      -0.00101317      -0.00359370       0.01324666
Pt       1.40360728       0.81037258      22.29206792        3      -0.00000297       0.00000146      -0.28044754
Pt       4.21082126       0.81037248      22.29206794        3      -0.03856373      -0.00521741      -0.06506705
Pt       7.01803474       0.81037256      22.29206786        3       0.03311517      -0.01020805      -0.06619923
Pt       2.80721448       3.24149124      22.29206779        3      -0.02536424      -0.02363557      -0.06623395
Pt       5.61442762       3.24149125      22.29206790        3       0.00000465       0.00000158      -0.01227515
Pt       8.42164155       3.24149130      22.29206809        3       0.02383227      -0.03088273      -0.06512276
Pt       4.21082091       5.67260997      22.29206801        3       0.01473538       0.03610664      -0.06512722
Pt       7.01803488       5.67261037      22.29206781        3      -0.00776197       0.03384240      -0.06614891
Pt       9.82524819       5.67261065      22.29206808        3       0.00000580      -0.00001154      -0.07464406
Pt      -0.00000056       1.62074567      24.58417371        2      -0.09317498       0.05522888       0.13472994
Pt       2.80721444       1.62074547      24.58417389        2       0.09435324       0.05301450       0.13474876
Pt       5.61442780       1.62074536      24.58417372        2       0.00011402       0.06976218       0.16784330
Pt       1.40360637       4.05186441      24.58417386        2       0.00247826      -0.03167910      -0.06475586
Pt       4.21082088       4.05186402      24.58417378        2       0.06040267      -0.03496633       0.16789658
Pt       7.01803505       4.05186404      24.58417403        2      -0.06050178      -0.03478888       0.16793722
Pt       2.80721282       6.48298342      24.58417366        2       0.02620316       0.01806634      -0.06487541
Pt       5.61442796       6.48298327      24.58417384        2      -0.00119410      -0.10823690       0.13472179
Pt       8.42164224       6.48298339      24.58417376        2      -0.02868051       0.01360847      -0.06481003
Pt       0.00282601       0.00033090      26.91103750        1       0.00140416       0.00372711      -0.01239759
Pt       2.80551649       0.00228405      26.91103585        1      -0.00393263      -0.00065256      -0.01239225
Pt       5.61544312      -0.02615293      26.90106712        1      -0.00007826       0.01723255      -0.00424853
Pt       1.40247962       2.42850839      26.91103814        1       0.00252537      -0.00307884      -0.01240022
Pt       4.18688056       2.41619245      27.01816766        1       0.01180764       0.00461044      -0.00610436
Pt       7.04293197       2.41785136      27.01816804        1      -0.00989391       0.00791650      -0.00610517
Pt       2.78405353       4.87443944      26.90105819        1       0.01496997      -0.00855731      -0.00422429
Pt       5.61346990       4.89043160      27.01816378        1      -0.00191136      -0.01251843      -0.00609544
Pt       8.44378547       4.87619754      26.90105761        1      -0.01489110      -0.00868825      -0.00422365
O        5.61442735       3.24149255      29.54575488        0      -0.00000025      -0.00000032      -0.01616855
C        5.61442758       3.24149015      28.34420985        0      -0.00000028       0.00000545       0.00747421
