38
Lattice="8.421641763931781 0.0 0.0 4.2108208819658905 7.293355709136913 0.0 0.0 0.0 46.87624170604845" Properties=species:S:1:pos:R:3:tags:I:1:forces:R:3 charge=0 spin=0 energy=-202.9120635950636 free_energy=-202.9120635950636 stress="0.009984060190618038 5.6191757913381934e-09 -1.696052742694576e-09 5.6191757913381934e-09 0.009984077885746956 3.948805726849969e-08 -1.696052742694576e-09 3.948805726849969e-08 -0.0003008993808180094" pbc="T T T"
Pt      -0.00000000       0.00000021      19.95723433        4      -0.01525284      -0.00890647       0.01067548
Pt       2.80721396      -0.00000008      19.95723446        4       0.01529581      -0.00877069       0.01067578
Pt       5.61442779      -0.00000016      19.95723449        4      -0.00267854       0.00279334       0.01343584
Pt       1.40360720       2.43111835      19.95723435        4      -0.00004511       0.01768016       0.01065300
Pt       4.21082080       2.43111834      19.95723443        4      -0.00094459      -0.00091819       0.01727188
Pt       7.01803483       2.43111844      19.95723431        4       0.00129461      -0.00036509       0.01722071
Pt       2.80721405       4.86223724      19.95723403        4       0.00378246       0.00091794       0.01346913
Pt       5.61442805       4.86223734      19.95723421        4      -0.00035057       0.00128393       0.01727712
Pt       8.42164144       4.86223725      19.95723437        4      -0.00110152      -0.00371658       0.01341688
Pt       1.40360728       0.81037258      22.29206792        3      -0.00000379       0.00000216      -0.27932030
Pt       4.21082126       0.81037248      22.29206794        3      -0.03834875      -0.00538041      -0.06507675
Pt       7.01803474       0.81037256      22.29206786        3       0.03302964      -0.01040750      -0.06642994
Pt       2.80721448       3.24149124      22.29206779        3      -0.02549478      -0.02346272      -0.06646292
Pt       5.61442762       3.24149125      22.29206790        3       0.00000454       0.00000127      -0.01061685
Pt       8.42164155       3.24149130      22.29206809        3       0.02386477      -0.03061057      -0.06513285
Pt       4.21082091       5.67260997      22.29206801        3       0.01448766       0.03599934      -0.06513388
Pt       7.01803488       5.67261037      22.29206781        3      -0.00754670       0.03387117      -0.06637169
Pt       9.82524819       5.67261065      22.29206808        3       0.00000569      -0.00001053      -0.07606836
Pt      -0.00000056       1.62074567      24.58417371        2      -0.09206440       0.05484662       0.12830725
Pt       2.80721444       1.62074547      24.58417389        2       0.09346107       0.05225424       0.12831479
Pt       5.61442780       1.62074536      24.58417372        2       0.00036313       0.06672717       0.15598990
Pt       1.40360637       4.05186441      24.58417386        2       0.00225016      -0.02791129      -0.05021399
Pt       4.21082088       4.05186402      24.58417378        2       0.05764339      -0.03366619       0.15603279
Pt       7.01803505       4.05186404      24.58417403        2      -0.05799140      -0.03305237       0.15607879
Pt       2.80721282       6.48298342      24.58417366        2       0.02305645       0.01596981      -0.05033866
Pt       5.61442796       6.48298327      24.58417384        2      -0.00141212      -0.10708610       0.12827671
Pt       8.42164224       6.48298339      24.58417376        2      -0.02530205       0.01191791      -0.05028037
Pt       0.00654136       0.00254017      26.91239754        1      -0.02384516      -0.01069386      -0.01477216
Pt       2.80174346       0.00439501      26.91239583        1       0.02119209      -0.01529942      -0.01476601
Pt       5.61607277      -0.01968595      26.90198523        1      -0.00171098      -0.03629800      -0.01518658
Pt       1.40253848       2.42418472      26.91240852        1       0.00264467       0.02599937      -0.01480342
Pt       4.18761686       2.41599078      27.01293343        1       0.02509667       0.01399558       0.03318781
Pt       7.04273895       2.41859049      27.01293381        1      -0.02467262       0.01472069       0.03318636
Pt       2.78934290       4.87065665      26.90198665        1      -0.03058583       0.01963262      -0.01519394
Pt       5.61292667       4.88989466      27.01292592        1      -0.00041065      -0.02872649       0.03320789
Pt       8.43787085       4.87350519      26.90198520        1       0.03228479       0.01666840      -0.01518945
O        5.61442607       3.24149530      29.54890724        0       0.00000044      -0.00000048      -0.04360986
C        5.61442565       3.24149176      28.34771592        0       0.00000415       0.00000133      -0.03171046
