38
Lattice="8.421641763931781 0.0 0.0 4.2108208819658905 7.293355709136913 0.0 0.0 0.0 46.87624170604845" Properties=species:S:1:pos:R:3:tags:I:1:forces:R:3 charge=0 spin=0 energy=-202.9122390711378 free_energy=-202.9122390711378 stress="0.009914928115904331 9.656807797853162e-09 9.944975509768028e-09 9.656807797853162e-09 0.0099149439483881 3.6521914381637544e-08 9.944975509768028e-09 3.6521914381637544e-08 -0.0004491958534345031" pbc="T T T"
Pt      -0.00000000       0.00000021      19.95723433        4      -0.01509339      -0.00889700       0.01065179
Pt       2.80721396      -0.00000008      19.95723446        4       0.01520722      -0.00863726       0.01065260
Pt       5.61442779      -0.00000016      19.95723449        4      -0.00268189       0.00254188       0.01324676
Pt       1.40360720       2.43111835      19.95723435        4      -0.00011583       0.01753742       0.01062777
Pt       4.21082080       2.43111834      19.95723443        4      -0.00072744      -0.00061606       0.01699643
Pt       7.01803483       2.43111844      19.95723431        4       0.00092520      -0.00032755       0.01694374
Pt       2.80721405       4.86223724      19.95723403        4       0.00356641       0.00104521       0.01327672
Pt       5.61442805       4.86223734      19.95723421        4      -0.00019728       0.00094502       0.01699908
Pt       8.42164144       4.86223725      19.95723437        4      -0.00088327      -0.00359373       0.01322352
Pt       1.40360728       0.81037258      22.29206792        3      -0.00000318       0.00000188      -0.28189179
Pt       4.21082126       0.81037248      22.29206794        3      -0.03930456      -0.00576791      -0.06578108
Pt       7.01803474       0.81037256      22.29206786        3       0.03379197      -0.01058639      -0.06688831
Pt       2.80721448       3.24149124      22.29206779        3      -0.02602943      -0.02403393      -0.06692941
Pt       5.61442762       3.24149125      22.29206790        3       0.00000390       0.00000007      -0.00723722
Pt       8.42164155       3.24149130      22.29206809        3       0.02467789      -0.03125054      -0.06583077
Pt       4.21082091       5.67260997      22.29206801        3       0.01463048       0.03702543      -0.06584235
Pt       7.01803488       5.67261037      22.29206781        3      -0.00777361       0.03461996      -0.06683559
Pt       9.82524819       5.67261065      22.29206808        3       0.00000559      -0.00001010      -0.07234541
Pt      -0.00000056       1.62074567      24.58417371        2      -0.09373720       0.05536573       0.13137764
Pt       2.80721444       1.62074547      24.58417389        2       0.09471825       0.05344896       0.13140588
Pt       5.61442780       1.62074536      24.58417372        2       0.00058376       0.07584435       0.14731938
Pt       1.40360637       4.05186441      24.58417386        2       0.00295789      -0.02852796      -0.08111439
Pt       4.21082088       4.05186402      24.58417378        2       0.06542045      -0.03840251       0.14739467
Pt       7.01803505       4.05186404      24.58417403        2      -0.06597632      -0.03740666       0.14743903
Pt       2.80721282       6.48298342      24.58417366        2       0.02323898       0.01690845      -0.08128091
Pt       5.61442796       6.48298327      24.58417384        2      -0.00099693      -0.10879590       0.13135806
Pt       8.42164224       6.48298339      24.58417376        2      -0.02620575       0.01156943      -0.08119774
Pt      -0.00162774      -0.00145833      26.90726256        1       0.02674794       0.01730640      -0.00430221
Pt       2.80931839      -0.00068605      26.90727380        1      -0.02845334       0.01451331      -0.00432950
Pt       5.61502840      -0.01796587      26.89432743        1       0.00197189      -0.03845440       0.01697441
Pt       1.40315189       2.43327323      26.90728802        1       0.00163963      -0.03185975      -0.00436492
Pt       4.19044173       2.41676269      27.01638998        1      -0.02167500      -0.00956218       0.00068613
Pt       7.04065065       2.42065909      27.01639541        1       0.01916948      -0.01402513       0.00065273
Pt       2.79134229       4.87070832      26.89433416        1      -0.03422990       0.01750334       0.01694212
Pt       5.61218019       4.88705898      27.01639099        1       0.00253729       0.02360411       0.00066305
Pt       8.43690606       4.87173185      26.89435454        1       0.03230008       0.02097196       0.01688205
O        5.61442449       3.24149238      29.54616191        0      -0.00001129      -0.00000158       0.00903635
C        5.61442278       3.24149195      28.34500145        0       0.00000117       0.00000336      -0.00457846
