38
Lattice="8.421641763931781 0.0 0.0 4.2108208819658905 7.293355709136913 0.0 0.0 0.0 46.87624170604845" Properties=species:S:1:pos:R:3:tags:I:1:forces:R:3 charge=0 spin=0 energy=-202.9126806223463 free_energy=-202.9126806223463 stress="0.009917957708239555 6.55263621140989e-09 9.041947190979727e-10 6.55263621140989e-09 0.009917974472045898 4.211282700339325e-08 9.041947190979727e-10 4.211282700339325e-08 -0.00043633152381516993" pbc="T T T"
Pt      -0.00000000       0.00000021      19.95723433        4      -0.01510536      -0.00890251       0.01075517
Pt       2.80721396      -0.00000008      19.95723446        4       0.01521843      -0.00864511       0.01075538
Pt       5.61442779      -0.00000016      19.95723449        4      -0.00268125       0.00268517       0.01332013
Pt       1.40360720       2.43111835      19.95723435        4      -0.00011503       0.01755057       0.01073239
Pt       4.21082080       2.43111834      19.95723443        4      -0.00086592      -0.00082358       0.01724107
Pt       7.01803483       2.43111844      19.95723431        4       0.00117353      -0.00034446       0.01718948
Pt       2.80721405       4.86223724      19.95723403        4       0.00369097       0.00097510       0.01335102
Pt       5.61442805       4.86223734      19.95723421        4      -0.00030838       0.00116912       0.01724431
Pt       8.42164144       4.86223725      19.95723437        4      -0.00100730      -0.00366562       0.01329869
Pt       1.40360728       0.81037258      22.29206792        3      -0.00000349       0.00000255      -0.28144103
Pt       4.21082126       0.81037248      22.29206794        3      -0.03870819      -0.00531113      -0.06537919
Pt       7.01803474       0.81037256      22.29206786        3       0.03318565      -0.01032809      -0.06679095
Pt       2.80721448       3.24149124      22.29206779        3      -0.02550429      -0.02363642      -0.06682909
Pt       5.61442762       3.24149125      22.29206790        3       0.00000406       0.00000125      -0.00961195
Pt       8.42164155       3.24149130      22.29206809        3       0.02398478      -0.03096011      -0.06543788
Pt       4.21082091       5.67260997      22.29206801        3       0.01472604       0.03627852      -0.06543789
Pt       7.01803488       5.67261037      22.29206781        3      -0.00769378       0.03396479      -0.06673894
Pt       9.82524819       5.67261065      22.29206808        3       0.00000484      -0.00001056      -0.07412435
Pt      -0.00000056       1.62074567      24.58417371        2      -0.09296089       0.05537347       0.12028150
Pt       2.80721444       1.62074547      24.58417389        2       0.09435857       0.05276215       0.12029605
Pt       5.61442780       1.62074536      24.58417372        2       0.00032750       0.07095954       0.15456481
Pt       1.40360637       4.05186441      24.58417386        2       0.00229535      -0.02610008      -0.06616477
Pt       4.21082088       4.05186402      24.58417378        2       0.06132683      -0.03574625       0.15462901
Pt       7.01803505       4.05186404      24.58417403        2      -0.06163632      -0.03519263       0.15467896
Pt       2.80721282       6.48298342      24.58417366        2       0.02147776       0.01510054      -0.06631088
Pt       5.61442796       6.48298327      24.58417384        2      -0.00142325      -0.10812734       0.12026093
Pt       8.42164224       6.48298339      24.58417376        2      -0.02375863       0.01097018      -0.06624625
Pt       0.00320843       0.00122517      26.90697759        1      -0.00552274      -0.00224777       0.00032826
Pt       2.80455464       0.00216202      26.90697063        1       0.00470102      -0.00364640       0.00034200
Pt       5.61584293      -0.01931923      26.89883953        1      -0.00118120      -0.03353247      -0.00262077
Pt       1.40305718       2.42773296      26.90698506        1       0.00083751       0.00590122       0.00030447
Pt       4.18681219       2.41519804      27.01570339        1       0.00650301       0.00373087      -0.00287970
Pt       7.04381805       2.41829379      27.01570497        1      -0.00644326       0.00374514      -0.00289764
Pt       2.78978263       4.87067752      26.89885043        1      -0.02847880       0.01776829      -0.00265307
Pt       5.61264377       4.89098431      27.01570446        1      -0.00001539      -0.00747475      -0.00289438
Pt       8.43767569       4.87311803      26.89884884        1       0.02960236       0.01575945      -0.00265413
O        5.61442530       3.24149311      29.53989762        0      -0.00000638      -0.00000449       0.01432003
C        5.61442351       3.24149169      28.33849714        0       0.00000162       0.00000171       0.01321899
