38
Lattice="8.421641763931781 0.0 0.0 4.2108208819658905 7.293355709136913 0.0 0.0 0.0 46.87624170604845" Properties=species:S:1:pos:R:3:tags:I:1:forces:R:3 charge=0 spin=0 energy=-202.9120635950636 free_energy=-202.9120635950636 stress="0.009984039701521397 6.543430686178908e-09 -1.8121436573537153e-09 6.543430686178908e-09 0.009984070435166359 3.957371319529557e-08 -1.8121436573537153e-09 3.957371319529557e-08 -0.0003007999621331692" pbc="T T T"
Pt      -0.00000000       0.00000021      19.95723433        4      -0.01525297      -0.00890653       0.01067542
Pt       2.80721396      -0.00000008      19.95723446        4       0.01529589      -0.00877061       0.01067563
Pt       5.61442779      -0.00000016      19.95723449        4      -0.00267852       0.00279329       0.01343584
Pt       1.40360720       2.43111835      19.95723435        4      -0.00004504       0.01768048       0.01065315
Pt       4.21082080       2.43111834      19.95723443        4      -0.00094457      -0.00091802       0.01727158
Pt       7.01803483       2.43111844      19.95723431        4       0.00129453      -0.00036503       0.01722042
Pt       2.80721405       4.86223724      19.95723403        4       0.00378250       0.00091812       0.01346915
Pt       5.61442805       4.86223734      19.95723421        4      -0.00035062       0.00128428       0.01727686
Pt       8.42164144       4.86223725      19.95723437        4      -0.00110135      -0.00371676       0.01341669
Pt       1.40360728       0.81037258      22.29206792        3      -0.00000371       0.00000182      -0.27932063
Pt       4.21082126       0.81037248      22.29206794        3      -0.03834936      -0.00538105      -0.06507687
Pt       7.01803474       0.81037256      22.29206786        3       0.03302976      -0.01040778      -0.06642979
Pt       2.80721448       3.24149124      22.29206779        3      -0.02549499      -0.02346268      -0.06646302
Pt       5.61442762       3.24149125      22.29206790        3       0.00000465       0.00000092      -0.01061839
Pt       8.42164155       3.24149130      22.29206809        3       0.02386478      -0.03061071      -0.06513267
Pt       4.21082091       5.67260997      22.29206801        3       0.01448772       0.03599909      -0.06513339
Pt       7.01803488       5.67261037      22.29206781        3      -0.00754684       0.03387083      -0.06637131
Pt       9.82524819       5.67261065      22.29206808        3       0.00000574      -0.00001056      -0.07606839
Pt      -0.00000056       1.62074567      24.58417371        2      -0.09206273       0.05484600       0.12830457
Pt       2.80721444       1.62074547      24.58417389        2       0.09345876       0.05225319       0.12831146
Pt       5.61442780       1.62074536      24.58417372        2       0.00036340       0.06672582       0.15598704
Pt       1.40360637       4.05186441      24.58417386        2       0.00225016      -0.02791071      -0.05021316
Pt       4.21082088       4.05186402      24.58417378        2       0.05764253      -0.03366579       0.15602906
Pt       7.01803505       4.05186404      24.58417403        2      -0.05798995      -0.03305156       0.15607588
Pt       2.80721282       6.48298342      24.58417366        2       0.02305637       0.01596971      -0.05033951
Pt       5.61442796       6.48298327      24.58417384        2      -0.00141199      -0.10708379       0.12827370
Pt       8.42164224       6.48298339      24.58417376        2      -0.02530186       0.01191780      -0.05028150
Pt       0.00654120       0.00254010      26.91239770        1      -0.02384469      -0.01069277      -0.01477178
Pt       2.80174360       0.00439495      26.91239603        1       0.02119288      -0.01529914      -0.01476520
Pt       5.61607275      -0.01968626      26.90198524        1      -0.00171023      -0.03629609      -0.01518613
Pt       1.40253859       2.42418488      26.91240874        1       0.00264386       0.02599998      -0.01480369
Pt       4.18761642       2.41599052      27.01293241        1       0.02510135       0.01399768       0.03319609
Pt       7.04273930       2.41859025      27.01293250        1      -0.02467542       0.01472287       0.03319555
Pt       2.78934312       4.87065686      26.90198661        1      -0.03059294       0.01963146      -0.01519393
Pt       5.61292657       4.88989494      27.01292463        1      -0.00040939      -0.02873069       0.03321721
Pt       8.43787098       4.87350545      26.90198525        1       0.03228715       0.01666671      -0.01518991
O        5.61442594       3.24149526      29.54890693        0       0.00000083      -0.00000036      -0.04389551
C        5.61442545       3.24149180      28.34771151        0       0.00000397       0.00000050      -0.03143061
