38
Lattice="8.421641763931781 0.0 0.0 4.2108208819658905 7.293355709136913 0.0 0.0 0.0 46.87624170604845" Properties=species:S:1:pos:R:3:tags:I:1:forces:R:3 charge=0 spin=0 energy=-202.91268348336925 free_energy=-202.91268348336925 stress="0.009917964227497578 5.742532227515085e-09 -9.932480393715082e-10 5.742532227515085e-09 0.009917981922626495 4.0259266143038985e-08 -9.932480393715082e-10 4.0259266143038985e-08 -0.000436395377619192" pbc="T T T"
Pt      -0.00000000       0.00000021      19.95723433        4      -0.01510527      -0.00890256       0.01075521
Pt       2.80721396      -0.00000008      19.95723446        4       0.01521842      -0.00864498       0.01075563
Pt       5.61442779      -0.00000016      19.95723449        4      -0.00268122       0.00268509       0.01332002
Pt       1.40360720       2.43111835      19.95723435        4      -0.00011501       0.01755059       0.01073237
Pt       4.21082080       2.43111834      19.95723443        4      -0.00086611      -0.00082340       0.01724139
Pt       7.01803483       2.43111844      19.95723431        4       0.00117369      -0.00034445       0.01718939
Pt       2.80721405       4.86223724      19.95723403        4       0.00369103       0.00097504       0.01335088
Pt       5.61442805       4.86223734      19.95723421        4      -0.00030850       0.00116911       0.01724425
Pt       8.42164144       4.86223725      19.95723437        4      -0.00100736      -0.00366557       0.01329884
Pt       1.40360728       0.81037258      22.29206792        3      -0.00000353       0.00000257      -0.28144088
Pt       4.21082126       0.81037248      22.29206794        3      -0.03870833      -0.00531096      -0.06537871
Pt       7.01803474       0.81037256      22.29206786        3       0.03318556      -0.01032807      -0.06679155
Pt       2.80721448       3.24149124      22.29206779        3      -0.02550436      -0.02363669      -0.06682870
Pt       5.61442762       3.24149125      22.29206790        3       0.00000403       0.00000097      -0.00961203
Pt       8.42164155       3.24149130      22.29206809        3       0.02398506      -0.03096027      -0.06543792
Pt       4.21082091       5.67260997      22.29206801        3       0.01472621       0.03627897      -0.06543827
Pt       7.01803488       5.67261037      22.29206781        3      -0.00769340       0.03396465      -0.06673924
Pt       9.82524819       5.67261065      22.29206808        3       0.00000481      -0.00001057      -0.07412445
Pt      -0.00000056       1.62074567      24.58417371        2      -0.09296006       0.05537330       0.12028199
Pt       2.80721444       1.62074547      24.58417389        2       0.09435964       0.05276292       0.12029839
Pt       5.61442780       1.62074536      24.58417372        2       0.00032623       0.07095991       0.15456615
Pt       1.40360637       4.05186441      24.58417386        2       0.00229637      -0.02609941      -0.06616298
Pt       4.21082088       4.05186402      24.58417378        2       0.06132516      -0.03574625       0.15463269
Pt       7.01803505       4.05186404      24.58417403        2      -0.06163611      -0.03519260       0.15467894
Pt       2.80721282       6.48298342      24.58417366        2       0.02147814       0.01509906      -0.06630811
Pt       5.61442796       6.48298327      24.58417384        2      -0.00142374      -0.10812739       0.12026247
Pt       8.42164224       6.48298339      24.58417376        2      -0.02375874       0.01097030      -0.06624620
Pt       0.00320838       0.00122524      26.90697747        1      -0.00552224      -0.00225080       0.00032816
Pt       2.80455464       0.00216211      26.90697060        1       0.00470014      -0.00364684       0.00034173
Pt       5.61584272      -0.01931924      26.89883958        1      -0.00118056      -0.03353239      -0.00262077
Pt       1.40305740       2.42773299      26.90698499        1       0.00083568       0.00590179       0.00030394
Pt       4.18681240       2.41519817      27.01570449        1       0.00649754       0.00372804      -0.00289202
Pt       7.04381792       2.41829381      27.01570551        1      -0.00643968       0.00374298      -0.00290243
Pt       2.78978256       4.87067750      26.89885047        1      -0.02847406       0.01776819      -0.00266019
Pt       5.61264374       4.89098400      27.01570533        1      -0.00001784      -0.00746682      -0.00290069
Pt       8.43767574       4.87311809      26.89884893        1       0.02960180       0.01575868      -0.00265466
O        5.61442515       3.24149321      29.53989690        0      -0.00000458      -0.00000415       0.01447517
C        5.61442368       3.24149148      28.33849802        0       0.00000139       0.00000217       0.01308213
