38
Lattice="8.421641763931781 0.0 0.0 4.2108208819658905 7.293355709136913 0.0 0.0 0.0 46.87624170604845" Properties=species:S:1:pos:R:3:tags:I:1:forces:R:3 charge=0 spin=0 energy=-202.91268348336925 free_energy=-202.91268348336925 stress="0.00991794839501381 7.898513842974353e-09 6.499764615419679e-10 7.898513842974353e-09 0.00991796888411045 4.21722106125344e-08 6.499764615419679e-10 4.21722106125344e-08 -0.00043634907342493534" pbc="T T T"
Pt      -0.00000000       0.00000021      19.95723433        4      -0.01510529      -0.00890260       0.01075502
Pt       2.80721396      -0.00000008      19.95723446        4       0.01521851      -0.00864511       0.01075546
Pt       5.61442779      -0.00000016      19.95723449        4      -0.00268129       0.00268507       0.01332007
Pt       1.40360720       2.43111835      19.95723435        4      -0.00011498       0.01755068       0.01073224
Pt       4.21082080       2.43111834      19.95723443        4      -0.00086597      -0.00082350       0.01724117
Pt       7.01803483       2.43111844      19.95723431        4       0.00117364      -0.00034432       0.01718946
Pt       2.80721405       4.86223724      19.95723403        4       0.00369105       0.00097506       0.01335092
Pt       5.61442805       4.86223734      19.95723421        4      -0.00030852       0.00116908       0.01724425
Pt       8.42164144       4.86223725      19.95723437        4      -0.00100744      -0.00366561       0.01329875
Pt       1.40360728       0.81037258      22.29206792        3      -0.00000344       0.00000238      -0.28144154
Pt       4.21082126       0.81037248      22.29206794        3      -0.03870844      -0.00531072      -0.06537917
Pt       7.01803474       0.81037256      22.29206786        3       0.03318560      -0.01032817      -0.06679127
Pt       2.80721448       3.24149124      22.29206779        3      -0.02550441      -0.02363645      -0.06682868
Pt       5.61442762       3.24149125      22.29206790        3       0.00000417       0.00000114      -0.00961250
Pt       8.42164155       3.24149130      22.29206809        3       0.02398470      -0.03096014      -0.06543831
Pt       4.21082091       5.67260997      22.29206801        3       0.01472626       0.03627879      -0.06543809
Pt       7.01803488       5.67261037      22.29206781        3      -0.00769364       0.03396468      -0.06673885
Pt       9.82524819       5.67261065      22.29206808        3       0.00000486      -0.00001078      -0.07412422
Pt      -0.00000056       1.62074567      24.58417371        2      -0.09296051       0.05537352       0.12028147
Pt       2.80721444       1.62074547      24.58417389        2       0.09435849       0.05276220       0.12029649
Pt       5.61442780       1.62074536      24.58417372        2       0.00032715       0.07095920       0.15456429
Pt       1.40360637       4.05186441      24.58417386        2       0.00229634      -0.02609910      -0.06616211
Pt       4.21082088       4.05186402      24.58417378        2       0.06132527      -0.03574528       0.15462953
Pt       7.01803505       4.05186404      24.58417403        2      -0.06163568      -0.03519258       0.15467845
Pt       2.80721282       6.48298342      24.58417366        2       0.02147785       0.01509885      -0.06630857
Pt       5.61442796       6.48298327      24.58417384        2      -0.00142342      -0.10812714       0.12026109
Pt       8.42164224       6.48298339      24.58417376        2      -0.02375866       0.01097052      -0.06624670
Pt       0.00320842       0.00122510      26.90697742        1      -0.00552286      -0.00224781       0.00032833
Pt       2.80455463       0.00216195      26.90697067        1       0.00470035      -0.00364666       0.00034192
Pt       5.61584283      -0.01931910      26.89883967        1      -0.00118050      -0.03353358      -0.00262088
Pt       1.40305729       2.42773292      26.90698510        1       0.00083560       0.00590206       0.00030379
Pt       4.18681260       2.41519825      27.01570369        1       0.00649655       0.00372620      -0.00288489
Pt       7.04381757       2.41829392      27.01570532        1      -0.00643393       0.00374044      -0.00290377
Pt       2.78978262       4.87067744      26.89885062        1      -0.02847979       0.01776946      -0.00265934
Pt       5.61264368       4.89098398      27.01570483        1      -0.00001645      -0.00746374      -0.00290102
Pt       8.43767554       4.87311820      26.89884902        1       0.02960364       0.01575642      -0.00265411
O        5.61442535       3.24149316      29.53989671        0      -0.00000654      -0.00000494       0.01433507
C        5.61442376       3.24149162      28.33849607        0       0.00000177       0.00000249       0.01322620
