38
Lattice="8.421641763931781 0.0 0.0 4.2108208819658905 7.293355709136913 0.0 0.0 0.0 46.87624170604845" Properties=species:S:1:pos:R:3:tags:I:1:forces:R:3 charge=0 spin=0 energy=-202.91268252969493 free_energy=-202.91268252969493 stress="0.00991796888411045 5.632063704297252e-09 -2.522450026631873e-10 5.632063704297252e-09 0.009917988441884518 4.109784512706938e-08 -2.522450026631873e-10 4.109784512706938e-08 -0.00043631382868625224" pbc="T T T"
Pt      -0.00000000       0.00000021      19.95723433        4      -0.01510530      -0.00890248       0.01075527
Pt       2.80721396      -0.00000008      19.95723446        4       0.01521837      -0.00864520       0.01075548
Pt       5.61442779      -0.00000016      19.95723449        4      -0.00268123       0.00268518       0.01332013
Pt       1.40360720       2.43111835      19.95723435        4      -0.00011491       0.01755068       0.01073233
Pt       4.21082080       2.43111834      19.95723443        4      -0.00086591      -0.00082343       0.01724145
Pt       7.01803483       2.43111844      19.95723431        4       0.00117357      -0.00034441       0.01718939
Pt       2.80721405       4.86223724      19.95723403        4       0.00369101       0.00097496       0.01335096
Pt       5.61442805       4.86223734      19.95723421        4      -0.00030845       0.00116903       0.01724412
Pt       8.42164144       4.86223725      19.95723437        4      -0.00100738      -0.00366554       0.01329878
Pt       1.40360728       0.81037258      22.29206792        3      -0.00000342       0.00000242      -0.28144079
Pt       4.21082126       0.81037248      22.29206794        3      -0.03870827      -0.00531107      -0.06537896
Pt       7.01803474       0.81037256      22.29206786        3       0.03318576      -0.01032796      -0.06679109
Pt       2.80721448       3.24149124      22.29206779        3      -0.02550423      -0.02363661      -0.06682874
Pt       5.61442762       3.24149125      22.29206790        3       0.00000402       0.00000106      -0.00961122
Pt       8.42164155       3.24149130      22.29206809        3       0.02398491      -0.03096018      -0.06543756
Pt       4.21082091       5.67260997      22.29206801        3       0.01472631       0.03627890      -0.06543835
Pt       7.01803488       5.67261037      22.29206781        3      -0.00769339       0.03396460      -0.06673907
Pt       9.82524819       5.67261065      22.29206808        3       0.00000483      -0.00001065      -0.07412463
Pt      -0.00000056       1.62074567      24.58417371        2      -0.09296124       0.05537353       0.12028202
Pt       2.80721444       1.62074547      24.58417389        2       0.09436023       0.05276317       0.12029850
Pt       5.61442780       1.62074536      24.58417372        2       0.00032632       0.07096057       0.15456605
Pt       1.40360637       4.05186441      24.58417386        2       0.00229504      -0.02610031      -0.06616534
Pt       4.21082088       4.05186402      24.58417378        2       0.06132653      -0.03574715       0.15463109
Pt       7.01803505       4.05186404      24.58417403        2      -0.06163653      -0.03519261       0.15467912
Pt       2.80721282       6.48298342      24.58417366        2       0.02147783       0.01510050      -0.06630997
Pt       5.61442796       6.48298327      24.58417384        2      -0.00142372      -0.10812791       0.12026292
Pt       8.42164224       6.48298339      24.58417376        2      -0.02375886       0.01097030      -0.06624628
Pt       0.00320834       0.00122527      26.90697746        1      -0.00552190      -0.00225032       0.00032839
Pt       2.80455465       0.00216206      26.90697059        1       0.00470041      -0.00364659       0.00034175
Pt       5.61584293      -0.01931904      26.89883933        1      -0.00118130      -0.03353486      -0.00262090
Pt       1.40305722       2.42773303      26.90698521        1       0.00083796       0.00590102       0.00030469
Pt       4.18681231       2.41519808      27.01570474        1       0.00650329       0.00373247      -0.00288271
Pt       7.04381805       2.41829376      27.01570577        1      -0.00644703       0.00374793      -0.00289284
Pt       2.78978257       4.87067746      26.89885041        1      -0.02847344       0.01776801      -0.00265364
Pt       5.61264378       4.89098398      27.01570576        1      -0.00001752      -0.00747521      -0.00289136
Pt       8.43767579       4.87311797      26.89884885        1       0.02960105       0.01575984      -0.00265442
O        5.61442512       3.24149321      29.53989899        0      -0.00000449      -0.00000412       0.01431081
C        5.61442363       3.24149157      28.33849888        0       0.00000118       0.00000244       0.01321452
