38
Lattice="8.421641763931781 0.0 0.0 4.2108208819658905 7.293355709136913 0.0 0.0 0.0 46.87624170604845" Properties=species:S:1:pos:R:3:tags:I:1:forces:R:3 charge=0 spin=0 energy=-202.91224002481212 free_energy=-202.91224002481212 stress="0.009914932772517204 6.775414895798804e-09 5.935809177515239e-09 6.775414895798804e-09 0.0099149439483881 3.5168657319673e-08 5.935809177515239e-09 3.5168657319673e-08 -0.00044924841495230794" pbc="T T T"
Pt      -0.00000000       0.00000021      19.95723433        4      -0.01509353      -0.00889699       0.01065179
Pt       2.80721396      -0.00000008      19.95723446        4       0.01520740      -0.00863717       0.01065273
Pt       5.61442779      -0.00000016      19.95723449        4      -0.00268191       0.00254201       0.01324687
Pt       1.40360720       2.43111835      19.95723435        4      -0.00011584       0.01753765       0.01062771
Pt       4.21082080       2.43111834      19.95723443        4      -0.00072742      -0.00061624       0.01699641
Pt       7.01803483       2.43111844      19.95723431        4       0.00092523      -0.00032760       0.01694389
Pt       2.80721405       4.86223724      19.95723403        4       0.00356653       0.00104524       0.01327655
Pt       5.61442805       4.86223734      19.95723421        4      -0.00019735       0.00094498       0.01699913
Pt       8.42164144       4.86223725      19.95723437        4      -0.00088314      -0.00359355       0.01322376
Pt       1.40360728       0.81037258      22.29206792        3      -0.00000340       0.00000202      -0.28189149
Pt       4.21082126       0.81037248      22.29206794        3      -0.03930443      -0.00576810      -0.06578051
Pt       7.01803474       0.81037256      22.29206786        3       0.03379169      -0.01058636      -0.06688830
Pt       2.80721448       3.24149124      22.29206779        3      -0.02602967      -0.02403407      -0.06692891
Pt       5.61442762       3.24149125      22.29206790        3       0.00000419       0.00000001      -0.00723787
Pt       8.42164155       3.24149130      22.29206809        3       0.02467715      -0.03125014      -0.06583007
Pt       4.21082091       5.67260997      22.29206801        3       0.01463040       0.03702525      -0.06584288
Pt       7.01803488       5.67261037      22.29206781        3      -0.00777345       0.03461958      -0.06683524
Pt       9.82524819       5.67261065      22.29206808        3       0.00000554      -0.00000997      -0.07234546
Pt      -0.00000056       1.62074567      24.58417371        2      -0.09373640       0.05536548       0.13137622
Pt       2.80721444       1.62074547      24.58417389        2       0.09471912       0.05344946       0.13140674
Pt       5.61442780       1.62074536      24.58417372        2       0.00058245       0.07584333       0.14731792
Pt       1.40360637       4.05186441      24.58417386        2       0.00295847      -0.02852831      -0.08111489
Pt       4.21082088       4.05186402      24.58417378        2       0.06541906      -0.03840294       0.14739269
Pt       7.01803505       4.05186404      24.58417403        2      -0.06597505      -0.03740563       0.14743643
Pt       2.80721282       6.48298342      24.58417366        2       0.02323877       0.01690865      -0.08128149
Pt       5.61442796       6.48298327      24.58417384        2      -0.00099668      -0.10879502       0.13135658
Pt       8.42164224       6.48298339      24.58417376        2      -0.02620582       0.01157002      -0.08119863
Pt      -0.00162774      -0.00145830      26.90726236        1       0.02674842       0.01730623      -0.00430213
Pt       2.80931839      -0.00068594      26.90727402        1      -0.02845298       0.01451368      -0.00432925
Pt       5.61502849      -0.01796674      26.89432729        1       0.00197205      -0.03845015       0.01697476
Pt       1.40315205       2.43327307      26.90728814        1       0.00164067      -0.03185935      -0.00436500
Pt       4.19044191       2.41676295      27.01638909        1      -0.02167579      -0.00956271       0.00068718
Pt       7.04065018       2.42065942      27.01639388        1       0.01916827      -0.01402439       0.00066234
Pt       2.79134193       4.87070857      26.89433536        1      -0.03422783       0.01750203       0.01694272
Pt       5.61218012       4.88705852      27.01639038        1       0.00253929       0.02360133       0.00067225
Pt       8.43690646       4.87173241      26.89435458        1       0.03229412       0.02096859       0.01688233
O        5.61442437       3.24149256      29.54616125        0      -0.00000858      -0.00000106       0.00916643
C        5.61442291       3.24149180      28.34500236        0       0.00000062       0.00000433      -0.00472155
