38
Lattice="8.421641763931781 0.0 0.0 4.2108208819658905 7.293355709136913 0.0 0.0 0.0 46.87624170604845" Properties=species:S:1:pos:R:3:tags:I:1:forces:R:3 charge=0 spin=0 energy=-202.91223430276622 free_energy=-202.91223430276622 stress="0.009914902970194817 8.58157811478577e-09 7.982914773663197e-09 8.58157811478577e-09 0.009914920665323734 3.456066366425148e-08 7.982914773663197e-09 3.456066366425148e-08 -0.000449230894446373" pbc="T T T"
Pt      -0.00000000       0.00000021      19.95723433        4      -0.01509375      -0.00889707       0.01065177
Pt       2.80721396      -0.00000008      19.95723446        4       0.01520734      -0.00863728       0.01065264
Pt       5.61442779      -0.00000016      19.95723449        4      -0.00268187       0.00254192       0.01324668
Pt       1.40360720       2.43111835      19.95723435        4      -0.00011591       0.01753749       0.01062781
Pt       4.21082080       2.43111834      19.95723443        4      -0.00072743      -0.00061602       0.01699637
Pt       7.01803483       2.43111844      19.95723431        4       0.00092524      -0.00032769       0.01694378
Pt       2.80721405       4.86223724      19.95723403        4       0.00356659       0.00104535       0.01327672
Pt       5.61442805       4.86223734      19.95723421        4      -0.00019742       0.00094516       0.01699925
Pt       8.42164144       4.86223725      19.95723437        4      -0.00088313      -0.00359353       0.01322386
Pt       1.40360728       0.81037258      22.29206792        3      -0.00000335       0.00000158      -0.28189167
Pt       4.21082126       0.81037248      22.29206794        3      -0.03930457      -0.00576825      -0.06578078
Pt       7.01803474       0.81037256      22.29206786        3       0.03379179      -0.01058687      -0.06688868
Pt       2.80721448       3.24149124      22.29206779        3      -0.02602942      -0.02403391      -0.06692914
Pt       5.61442762       3.24149125      22.29206790        3       0.00000401       0.00000019      -0.00723875
Pt       8.42164155       3.24149130      22.29206809        3       0.02467738      -0.03125019      -0.06583041
Pt       4.21082091       5.67260997      22.29206801        3       0.01463049       0.03702477      -0.06584270
Pt       7.01803488       5.67261037      22.29206781        3      -0.00777360       0.03461926      -0.06683520
Pt       9.82524819       5.67261065      22.29206808        3       0.00000539      -0.00000999      -0.07234544
Pt      -0.00000056       1.62074567      24.58417371        2      -0.09373509       0.05536482       0.13137414
Pt       2.80721444       1.62074547      24.58417389        2       0.09471641       0.05344817       0.13140287
Pt       5.61442780       1.62074536      24.58417372        2       0.00058369       0.07584237       0.14731562
Pt       1.40360637       4.05186441      24.58417386        2       0.00295806      -0.02852776      -0.08111502
Pt       4.21082088       4.05186402      24.58417378        2       0.06541797      -0.03840251       0.14738967
Pt       7.01803505       4.05186404      24.58417403        2      -0.06597373      -0.03740615       0.14743374
Pt       2.80721282       6.48298342      24.58417366        2       0.02323869       0.01690859      -0.08128148
Pt       5.61442796       6.48298327      24.58417384        2      -0.00099681      -0.10879162       0.13135193
Pt       8.42164224       6.48298339      24.58417376        2      -0.02620522       0.01156980      -0.08119887
Pt      -0.00162789      -0.00145820      26.90726195        1       0.02674692       0.01730723      -0.00430194
Pt       2.80931857      -0.00068610      26.90727371        1      -0.02845263       0.01451394      -0.00432868
Pt       5.61502825      -0.01796621      26.89432724        1       0.00197283      -0.03845455       0.01697414
Pt       1.40315195       2.43327325      26.90728832        1       0.00163919      -0.03185914      -0.00436453
Pt       4.19044101       2.41676215      27.01638729        1      -0.02167375      -0.00955999       0.00068900
Pt       7.04065113       2.42065895      27.01639279        1       0.01916975      -0.01402646       0.00065497
Pt       2.79134242       4.87070853      26.89433401        1      -0.03423090       0.01750378       0.01694217
Pt       5.61218013       4.88705961      27.01638888        1       0.00253606       0.02360008       0.00067349
Pt       8.43690610       4.87173203      26.89435389        1       0.03230091       0.02097072       0.01688250
O        5.61442471       3.24149260      29.54615857        0      -0.00001154      -0.00000082       0.00904383
C        5.61442270       3.24149166      28.34499752        0       0.00000144       0.00000439      -0.00457359
