38
Lattice="8.421641763931781 0.0 0.0 4.2108208819658905 7.293355709136913 0.0 0.0 0.0 46.87624170604845" Properties=species:S:1:pos:R:3:tags:I:1:forces:R:3 charge=0 spin=0 energy=-202.9126806223463 free_energy=-202.9126806223463 stress="0.009917961433529854 5.5160711553980946e-09 1.3538198340157237e-09 5.5160711553980946e-09 0.00991797260940075 3.9748083935364775e-08 1.3538198340157237e-09 3.9748083935364775e-08 -0.0004363918269518763" pbc="T T T"
Pt      -0.00000000       0.00000021      19.95723433        4      -0.01510544      -0.00890255       0.01075512
Pt       2.80721396      -0.00000008      19.95723446        4       0.01521837      -0.00864497       0.01075559
Pt       5.61442779      -0.00000016      19.95723449        4      -0.00268123       0.00268495       0.01332023
Pt       1.40360720       2.43111835      19.95723435        4      -0.00011498       0.01755067       0.01073222
Pt       4.21082080       2.43111834      19.95723443        4      -0.00086597      -0.00082341       0.01724147
Pt       7.01803483       2.43111844      19.95723431        4       0.00117354      -0.00034449       0.01718941
Pt       2.80721405       4.86223724      19.95723403        4       0.00369106       0.00097505       0.01335107
Pt       5.61442805       4.86223734      19.95723421        4      -0.00030854       0.00116907       0.01724438
Pt       8.42164144       4.86223725      19.95723437        4      -0.00100726      -0.00366553       0.01329882
Pt       1.40360728       0.81037258      22.29206792        3      -0.00000340       0.00000238      -0.28144079
Pt       4.21082126       0.81037248      22.29206794        3      -0.03870827      -0.00531101      -0.06537902
Pt       7.01803474       0.81037256      22.29206786        3       0.03318560      -0.01032796      -0.06679114
Pt       2.80721448       3.24149124      22.29206779        3      -0.02550391      -0.02363645      -0.06682830
Pt       5.61442762       3.24149125      22.29206790        3       0.00000407       0.00000114      -0.00961261
Pt       8.42164155       3.24149130      22.29206809        3       0.02398500      -0.03096010      -0.06543784
Pt       4.21082091       5.67260997      22.29206801        3       0.01472626       0.03627836      -0.06543791
Pt       7.01803488       5.67261037      22.29206781        3      -0.00769380       0.03396476      -0.06673910
Pt       9.82524819       5.67261065      22.29206808        3       0.00000487      -0.00001053      -0.07412447
Pt      -0.00000056       1.62074567      24.58417371        2      -0.09296042       0.05537317       0.12028079
Pt       2.80721444       1.62074547      24.58417389        2       0.09435819       0.05276239       0.12029638
Pt       5.61442780       1.62074536      24.58417372        2       0.00032720       0.07095917       0.15456453
Pt       1.40360637       4.05186441      24.58417386        2       0.00229663      -0.02609943      -0.06616313
Pt       4.21082088       4.05186402      24.58417378        2       0.06132426      -0.03574570       0.15463017
Pt       7.01803505       4.05186404      24.58417403        2      -0.06163524      -0.03519304       0.15467711
Pt       2.80721282       6.48298342      24.58417366        2       0.02147772       0.01509891      -0.06630860
Pt       5.61442796       6.48298327      24.58417384        2      -0.00142368      -0.10812594       0.12025984
Pt       8.42164224       6.48298339      24.58417376        2      -0.02375848       0.01097025      -0.06624626
Pt       0.00320832       0.00122520      26.90697762        1      -0.00552262      -0.00224868       0.00032888
Pt       2.80455462       0.00216196      26.90697071        1       0.00470079      -0.00364571       0.00034198
Pt       5.61584306      -0.01931915      26.89883953        1      -0.00118057      -0.03353228      -0.00262065
Pt       1.40305717       2.42773299      26.90698514        1       0.00083799       0.00590156       0.00030462
Pt       4.18681218       2.41519798      27.01570299        1       0.00650111       0.00373132      -0.00288270
Pt       7.04381805       2.41829371      27.01570428        1      -0.00644250       0.00374489      -0.00290029
Pt       2.78978255       4.87067759      26.89885048        1      -0.02847482       0.01776774      -0.00266013
Pt       5.61264388       4.89098444      27.01570411        1      -0.00001806      -0.00747687      -0.00288951
Pt       8.43767564       4.87311804      26.89884895        1       0.02960150       0.01575902      -0.00265485
O        5.61442522       3.24149310      29.53989667        0      -0.00000655      -0.00000208       0.01446456
C        5.61442372       3.24149159      28.33849769        0       0.00000162       0.00000193       0.01307990
