38
Lattice="8.421641763931781 0.0 0.0 4.2108208819658905 7.293355709136913 0.0 0.0 0.0 46.87624170604845" Properties=species:S:1:pos:R:3:tags:I:1:forces:R:3 charge=0 spin=0 energy=-202.9120645487379 free_energy=-202.9120645487379 stress="0.009984046220779419 6.76805012034265e-09 -1.6162288174470518e-09 6.76805012034265e-09 0.009984076023101807 3.786307800623945e-08 -1.6162288174470518e-09 3.786307800623945e-08 -0.0003008502535521984" pbc="T T T"
Pt      -0.00000000       0.00000021      19.95723433        4      -0.01525308      -0.00890643       0.01067563
Pt       2.80721396      -0.00000008      19.95723446        4       0.01529596      -0.00877061       0.01067567
Pt       5.61442779      -0.00000016      19.95723449        4      -0.00267871       0.00279324       0.01343578
Pt       1.40360720       2.43111835      19.95723435        4      -0.00004510       0.01768024       0.01065313
Pt       4.21082080       2.43111834      19.95723443        4      -0.00094461      -0.00091822       0.01727171
Pt       7.01803483       2.43111844      19.95723431        4       0.00129456      -0.00036518       0.01722067
Pt       2.80721405       4.86223724      19.95723403        4       0.00378255       0.00091804       0.01346911
Pt       5.61442805       4.86223734      19.95723421        4      -0.00035074       0.00128391       0.01727701
Pt       8.42164144       4.86223725      19.95723437        4      -0.00110143      -0.00371655       0.01341686
Pt       1.40360728       0.81037258      22.29206792        3      -0.00000380       0.00000191      -0.27932069
Pt       4.21082126       0.81037248      22.29206794        3      -0.03834864      -0.00538055      -0.06507648
Pt       7.01803474       0.81037256      22.29206786        3       0.03302987      -0.01040766      -0.06642982
Pt       2.80721448       3.24149124      22.29206779        3      -0.02549483      -0.02346257      -0.06646288
Pt       5.61442762       3.24149125      22.29206790        3       0.00000481       0.00000122      -0.01061761
Pt       8.42164155       3.24149130      22.29206809        3       0.02386537      -0.03061085      -0.06513290
Pt       4.21082091       5.67260997      22.29206801        3       0.01448802       0.03599963      -0.06513381
Pt       7.01803488       5.67261037      22.29206781        3      -0.00754670       0.03387126      -0.06637169
Pt       9.82524819       5.67261065      22.29206808        3       0.00000568      -0.00001027      -0.07606847
Pt      -0.00000056       1.62074567      24.58417371        2      -0.09206419       0.05484682       0.12830696
Pt       2.80721444       1.62074547      24.58417389        2       0.09346031       0.05225413       0.12831402
Pt       5.61442780       1.62074536      24.58417372        2       0.00036314       0.06672711       0.15598966
Pt       1.40360637       4.05186441      24.58417386        2       0.00225038      -0.02791116      -0.05021309
Pt       4.21082088       4.05186402      24.58417378        2       0.05764284      -0.03366686       0.15603144
Pt       7.01803505       4.05186404      24.58417403        2      -0.05799036      -0.03305293       0.15607752
Pt       2.80721282       6.48298342      24.58417366        2       0.02305582       0.01596973      -0.05033860
Pt       5.61442796       6.48298327      24.58417384        2      -0.00141227      -0.10708417       0.12827310
Pt       8.42164224       6.48298339      24.58417376        2      -0.02530148       0.01191783      -0.05028064
Pt       0.00654163       0.00254026      26.91239786        1      -0.02384756      -0.01069161      -0.01477188
Pt       2.80174332       0.00439515      26.91239564        1       0.02119443      -0.01529939      -0.01476554
Pt       5.61607279      -0.01968541      26.90198523        1      -0.00170993      -0.03630169      -0.01518662
Pt       1.40253868       2.42418465      26.91240862        1       0.00264208       0.02600165      -0.01480382
Pt       4.18761612       2.41599034      27.01293295        1       0.02509955       0.01399947       0.03318895
Pt       7.04273912       2.41859048      27.01293288        1      -0.02467111       0.01472156       0.03318601
Pt       2.78934351       4.87065638      26.90198692        1      -0.03059190       0.01963324      -0.01519442
Pt       5.61292699       4.88989523      27.01292459        1      -0.00041243      -0.02873637       0.03321869
Pt       8.43787062       4.87350502      26.90198509        1       0.03228826       0.01666842      -0.01519007
O        5.61442602       3.24149504      29.54890684        0      -0.00000049       0.00000206      -0.04375225
C        5.61442515       3.24149156      28.34771408        0       0.00000574       0.00000166      -0.03157056
