38
Lattice="8.421641763931781 0.0 0.0 4.2108208819658905 7.293355709136913 0.0 0.0 0.0 46.87624170604845" Properties=species:S:1:pos:R:3:tags:I:1:forces:R:3 charge=0 spin=0 energy=-202.91223621011486 free_energy=-202.91223621011486 stress="0.009914923459291458 5.267517089180274e-09 6.510513017587982e-09 5.267517089180274e-09 0.009914932772517204 3.598944431359996e-08 6.510513017587982e-09 3.598944431359996e-08 -0.00044920272193849087" pbc="T T T"
Pt      -0.00000000       0.00000021      19.95723433        4      -0.01509343      -0.00889696       0.01065188
Pt       2.80721396      -0.00000008      19.95723446        4       0.01520736      -0.00863731       0.01065247
Pt       5.61442779      -0.00000016      19.95723449        4      -0.00268191       0.00254195       0.01324689
Pt       1.40360720       2.43111835      19.95723435        4      -0.00011582       0.01753770       0.01062764
Pt       4.21082080       2.43111834      19.95723443        4      -0.00072745      -0.00061619       0.01699643
Pt       7.01803483       2.43111844      19.95723431        4       0.00092511      -0.00032771       0.01694368
Pt       2.80721405       4.86223724      19.95723403        4       0.00356640       0.00104522       0.01327664
Pt       5.61442805       4.86223734      19.95723421        4      -0.00019717       0.00094514       0.01699927
Pt       8.42164144       4.86223725      19.95723437        4      -0.00088314      -0.00359356       0.01322365
Pt       1.40360728       0.81037258      22.29206792        3      -0.00000330       0.00000189      -0.28189158
Pt       4.21082126       0.81037248      22.29206794        3      -0.03930441      -0.00576807      -0.06578052
Pt       7.01803474       0.81037256      22.29206786        3       0.03379187      -0.01058660      -0.06688860
Pt       2.80721448       3.24149124      22.29206779        3      -0.02602958      -0.02403403      -0.06692898
Pt       5.61442762       3.24149125      22.29206790        3       0.00000390       0.00000007      -0.00723817
Pt       8.42164155       3.24149130      22.29206809        3       0.02467748      -0.03125019      -0.06583034
Pt       4.21082091       5.67260997      22.29206801        3       0.01463043       0.03702517      -0.06584278
Pt       7.01803488       5.67261037      22.29206781        3      -0.00777362       0.03461928      -0.06683491
Pt       9.82524819       5.67261065      22.29206808        3       0.00000566      -0.00001004      -0.07234530
Pt      -0.00000056       1.62074567      24.58417371        2      -0.09373529       0.05536452       0.13137417
Pt       2.80721444       1.62074547      24.58417389        2       0.09471722       0.05344838       0.13140336
Pt       5.61442780       1.62074536      24.58417372        2       0.00058287       0.07584229       0.14731467
Pt       1.40360637       4.05186441      24.58417386        2       0.00295815      -0.02852808      -0.08111522
Pt       4.21082088       4.05186402      24.58417378        2       0.06541891      -0.03840178       0.14739077
Pt       7.01803505       4.05186404      24.58417403        2      -0.06597468      -0.03740457       0.14743501
Pt       2.80721282       6.48298342      24.58417366        2       0.02323884       0.01690889      -0.08128123
Pt       5.61442796       6.48298327      24.58417384        2      -0.00099669      -0.10879464       0.13135614
Pt       8.42164224       6.48298339      24.58417376        2      -0.02620620       0.01156965      -0.08119980
Pt      -0.00162770      -0.00145831      26.90726248        1       0.02674733       0.01730598      -0.00430230
Pt       2.80931844      -0.00068605      26.90727384        1      -0.02845456       0.01451230      -0.00432889
Pt       5.61502817      -0.01796644      26.89432737        1       0.00197632      -0.03845059       0.01697503
Pt       1.40315204       2.43327317      26.90728809        1       0.00163883      -0.03185927      -0.00436487
Pt       4.19044165       2.41676272      27.01638793        1      -0.02167153      -0.00956148       0.00069725
Pt       7.04065058       2.42065923      27.01639269        1       0.01916555      -0.01402340       0.00067084
Pt       2.79134222       4.87070853      26.89433521        1      -0.03422968       0.01750361       0.01694286
Pt       5.61217997       4.88705889      27.01638945        1       0.00254022       0.02360301       0.00067266
Pt       8.43690652       4.87173214      26.89435480        1       0.03229403       0.02096824       0.01688237
O        5.61442441       3.24149254      29.54616070        0      -0.00000827      -0.00000314       0.00902301
C        5.61442267       3.24149185      28.34500061        0       0.00000017       0.00000438      -0.00458305
