38
Lattice="8.421641763931781 0.0 0.0 4.2108208819658905 7.293355709136913 0.0 0.0 0.0 46.87624170604845" Properties=species:S:1:pos:R:3:tags:I:1:forces:R:3 charge=0 spin=0 energy=-202.91206264138927 free_energy=-202.91206264138927 stress="0.009984035044908524 3.540522541811697e-09 -2.7162612159514765e-09 3.540522541811697e-09 0.009984058327972889 3.887651800482672e-08 -2.7162612159514765e-09 3.887651800482672e-08 -0.00030074582900851965" pbc="T T T"
Pt      -0.00000000       0.00000021      19.95723433        4      -0.01525305      -0.00890651       0.01067539
Pt       2.80721396      -0.00000008      19.95723446        4       0.01529593      -0.00877068       0.01067559
Pt       5.61442779      -0.00000016      19.95723449        4      -0.00267870       0.00279340       0.01343563
Pt       1.40360720       2.43111835      19.95723435        4      -0.00004508       0.01768045       0.01065296
Pt       4.21082080       2.43111834      19.95723443        4      -0.00094447      -0.00091818       0.01727169
Pt       7.01803483       2.43111844      19.95723431        4       0.00129463      -0.00036503       0.01722037
Pt       2.80721405       4.86223724      19.95723403        4       0.00378248       0.00091802       0.01346915
Pt       5.61442805       4.86223734      19.95723421        4      -0.00035060       0.00128421       0.01727682
Pt       8.42164144       4.86223725      19.95723437        4      -0.00110146      -0.00371664       0.01341667
Pt       1.40360728       0.81037258      22.29206792        3      -0.00000352       0.00000179      -0.27932146
Pt       4.21082126       0.81037248      22.29206794        3      -0.03834880      -0.00538063      -0.06507629
Pt       7.01803474       0.81037256      22.29206786        3       0.03302992      -0.01040801      -0.06643020
Pt       2.80721448       3.24149124      22.29206779        3      -0.02549491      -0.02346268      -0.06646336
Pt       5.61442762       3.24149125      22.29206790        3       0.00000430       0.00000119      -0.01061838
Pt       8.42164155       3.24149130      22.29206809        3       0.02386533      -0.03061067      -0.06513273
Pt       4.21082091       5.67260997      22.29206801        3       0.01448772       0.03599896      -0.06513347
Pt       7.01803488       5.67261037      22.29206781        3      -0.00754652       0.03387091      -0.06637114
Pt       9.82524819       5.67261065      22.29206808        3       0.00000574      -0.00001058      -0.07606862
Pt      -0.00000056       1.62074567      24.58417371        2      -0.09206238       0.05484578       0.12830427
Pt       2.80721444       1.62074547      24.58417389        2       0.09345896       0.05225219       0.12831354
Pt       5.61442780       1.62074536      24.58417372        2       0.00036304       0.06672558       0.15598610
Pt       1.40360637       4.05186441      24.58417386        2       0.00224995      -0.02791071      -0.05021181
Pt       4.21082088       4.05186402      24.58417378        2       0.05764223      -0.03366567       0.15602911
Pt       7.01803505       4.05186404      24.58417403        2      -0.05799000      -0.03305155       0.15607478
Pt       2.80721282       6.48298342      24.58417366        2       0.02305578       0.01596938      -0.05033832
Pt       5.61442796       6.48298327      24.58417384        2      -0.00141140      -0.10708319       0.12827469
Pt       8.42164224       6.48298339      24.58417376        2      -0.02530229       0.01191833      -0.05027904
Pt       0.00654165       0.00254026      26.91239828        1      -0.02384647      -0.01069368      -0.01477205
Pt       2.80174326       0.00439513      26.91239649        1       0.02119416      -0.01529910      -0.01477087
Pt       5.61607284      -0.01968560      26.90198556        1      -0.00171076      -0.03630447      -0.01518705
Pt       1.40253854       2.42418437      26.91240910        1       0.00264465       0.02600312      -0.01480399
Pt       4.18761659       2.41599062      27.01293121        1       0.02509391       0.01399592       0.03319473
Pt       7.04273912       2.41859035      27.01293146        1      -0.02466978       0.01472023       0.03319281
Pt       2.78934338       4.87065649      26.90198700        1      -0.03059470       0.01963430      -0.01519504
Pt       5.61292678       4.88989490      27.01292404        1      -0.00041317      -0.02872668       0.03321673
Pt       8.43787039       4.87350517      26.90198544        1       0.03229460       0.01666983      -0.01518978
O        5.61442601       3.24149528      29.54890641        0       0.00000047      -0.00000021      -0.04403041
C        5.61442551       3.24149175      28.34771038        0       0.00000445       0.00000115      -0.03128718
