38
Lattice="8.421641763931781 0.0 0.0 4.2108208819658905 7.293355709136913 0.0 0.0 0.0 46.87624170604845" Properties=species:S:1:pos:R:3:tags:I:1:forces:R:3 charge=0 spin=0 energy=-202.91267966867198 free_energy=-202.91267966867198 stress="0.009917967952787876 3.886657662377502e-09 8.682883856359069e-10 3.886657662377502e-09 0.009917985647916794 4.115170781915367e-08 8.682883856359069e-10 4.115170781915367e-08 -0.00043630978325381875" pbc="T T T"
Pt      -0.00000000       0.00000021      19.95723433        4      -0.01510529      -0.00890252       0.01075519
Pt       2.80721396      -0.00000008      19.95723446        4       0.01521843      -0.00864517       0.01075538
Pt       5.61442779      -0.00000016      19.95723449        4      -0.00268111       0.00268498       0.01332002
Pt       1.40360720       2.43111835      19.95723435        4      -0.00011495       0.01755061       0.01073235
Pt       4.21082080       2.43111834      19.95723443        4      -0.00086608      -0.00082346       0.01724124
Pt       7.01803483       2.43111844      19.95723431        4       0.00117355      -0.00034442       0.01718937
Pt       2.80721405       4.86223724      19.95723403        4       0.00369105       0.00097496       0.01335111
Pt       5.61442805       4.86223734      19.95723421        4      -0.00030846       0.00116916       0.01724421
Pt       8.42164144       4.86223725      19.95723437        4      -0.00100736      -0.00366561       0.01329873
Pt       1.40360728       0.81037258      22.29206792        3      -0.00000341       0.00000252      -0.28144044
Pt       4.21082126       0.81037248      22.29206794        3      -0.03870890      -0.00531116      -0.06537968
Pt       7.01803474       0.81037256      22.29206786        3       0.03318584      -0.01032812      -0.06679133
Pt       2.80721448       3.24149124      22.29206779        3      -0.02550395      -0.02363634      -0.06682808
Pt       5.61442762       3.24149125      22.29206790        3       0.00000409       0.00000096      -0.00961196
Pt       8.42164155       3.24149130      22.29206809        3       0.02398483      -0.03096030      -0.06543820
Pt       4.21082091       5.67260997      22.29206801        3       0.01472613       0.03627838      -0.06543785
Pt       7.01803488       5.67261037      22.29206781        3      -0.00769351       0.03396524      -0.06673913
Pt       9.82524819       5.67261065      22.29206808        3       0.00000493      -0.00001058      -0.07412406
Pt      -0.00000056       1.62074567      24.58417371        2      -0.09296031       0.05537356       0.12028037
Pt       2.80721444       1.62074547      24.58417389        2       0.09435889       0.05276247       0.12029621
Pt       5.61442780       1.62074536      24.58417372        2       0.00032644       0.07095952       0.15456323
Pt       1.40360637       4.05186441      24.58417386        2       0.00229679      -0.02609888      -0.06616259
Pt       4.21082088       4.05186402      24.58417378        2       0.06132484      -0.03574607       0.15462941
Pt       7.01803505       4.05186404      24.58417403        2      -0.06163566      -0.03519220       0.15467609
Pt       2.80721282       6.48298342      24.58417366        2       0.02147718       0.01509869      -0.06630854
Pt       5.61442796       6.48298327      24.58417384        2      -0.00142342      -0.10812661       0.12025999
Pt       8.42164224       6.48298339      24.58417376        2      -0.02375834       0.01096990      -0.06624667
Pt       0.00320830       0.00122510      26.90697756        1      -0.00552387      -0.00224889       0.00032926
Pt       2.80455470       0.00216199      26.90697101        1       0.00470061      -0.00364675       0.00034228
Pt       5.61584302      -0.01931881      26.89883946        1      -0.00118095      -0.03353674      -0.00262107
Pt       1.40305719       2.42773302      26.90698507        1       0.00083775       0.00590201       0.00030456
Pt       4.18681197       2.41519786      27.01570242        1       0.00651232       0.00373812      -0.00287154
Pt       7.04381821       2.41829371      27.01570375        1      -0.00645310       0.00375157      -0.00288075
Pt       2.78978300       4.87067727      26.89885060        1      -0.02847955       0.01776883      -0.00265930
Pt       5.61264364       4.89098455      27.01570374        1      -0.00001691      -0.00748649      -0.00287952
Pt       8.43767535       4.87311786      26.89884886        1       0.02960470       0.01576016      -0.00265540
O        5.61442526       3.24149328      29.53989938        0      -0.00000457      -0.00000368       0.01429781
C        5.61442379       3.24149158      28.33849879        0       0.00000115       0.00000233       0.01320912
