38
Lattice="8.421641763931781 0.0 0.0 4.2108208819658905 7.293355709136913 0.0 0.0 0.0 46.87624170604845" Properties=species:S:1:pos:R:3:tags:I:1:forces:R:3 charge=0 spin=0 energy=-202.9120578730177 free_energy=-202.9120578730177 stress="0.009984039701521397 3.938209758302946e-09 -2.073553995174393e-09 3.938209758302946e-09 0.009984063915908337 3.9340829260936516e-08 -2.073553995174393e-09 3.9340829260936516e-08 -0.0003007299383170903" pbc="T T T"
Pt      -0.00000000       0.00000021      19.95723433        4      -0.01525303      -0.00890644       0.01067554
Pt       2.80721396      -0.00000008      19.95723446        4       0.01529589      -0.00877075       0.01067565
Pt       5.61442779      -0.00000016      19.95723449        4      -0.00267871       0.00279326       0.01343571
Pt       1.40360720       2.43111835      19.95723435        4      -0.00004498       0.01768040       0.01065298
Pt       4.21082080       2.43111834      19.95723443        4      -0.00094453      -0.00091801       0.01727184
Pt       7.01803483       2.43111844      19.95723431        4       0.00129470      -0.00036529       0.01722054
Pt       2.80721405       4.86223724      19.95723403        4       0.00378236       0.00091796       0.01346922
Pt       5.61442805       4.86223734      19.95723421        4      -0.00035064       0.00128405       0.01727709
Pt       8.42164144       4.86223725      19.95723437        4      -0.00110143      -0.00371661       0.01341686
Pt       1.40360728       0.81037258      22.29206792        3      -0.00000365       0.00000190      -0.27932122
Pt       4.21082126       0.81037248      22.29206794        3      -0.03834856      -0.00538032      -0.06507643
Pt       7.01803474       0.81037256      22.29206786        3       0.03303010      -0.01040766      -0.06642985
Pt       2.80721448       3.24149124      22.29206779        3      -0.02549479      -0.02346263      -0.06646298
Pt       5.61442762       3.24149125      22.29206790        3       0.00000450       0.00000120      -0.01061747
Pt       8.42164155       3.24149130      22.29206809        3       0.02386511      -0.03061088      -0.06513299
Pt       4.21082091       5.67260997      22.29206801        3       0.01448775       0.03599908      -0.06513335
Pt       7.01803488       5.67261037      22.29206781        3      -0.00754654       0.03387121      -0.06637134
Pt       9.82524819       5.67261065      22.29206808        3       0.00000582      -0.00001040      -0.07606838
Pt      -0.00000056       1.62074567      24.58417371        2      -0.09206329       0.05484615       0.12830533
Pt       2.80721444       1.62074547      24.58417389        2       0.09345899       0.05225318       0.12831166
Pt       5.61442780       1.62074536      24.58417372        2       0.00036329       0.06672584       0.15598679
Pt       1.40360637       4.05186441      24.58417386        2       0.00224991      -0.02791124      -0.05021427
Pt       4.21082088       4.05186402      24.58417378        2       0.05764240      -0.03366565       0.15602998
Pt       7.01803505       4.05186404      24.58417403        2      -0.05799001      -0.03305178       0.15607557
Pt       2.80721282       6.48298342      24.58417366        2       0.02305645       0.01596961      -0.05033949
Pt       5.61442796       6.48298327      24.58417384        2      -0.00141219      -0.10708432       0.12827417
Pt       8.42164224       6.48298339      24.58417376        2      -0.02530201       0.01191787      -0.05028113
Pt       0.00654156       0.00254016      26.91239804        1      -0.02384653      -0.01069284      -0.01477216
Pt       2.80174354       0.00439506      26.91239582        1       0.02119276      -0.01529999      -0.01476569
Pt       5.61607283      -0.01968580      26.90198510        1      -0.00171040      -0.03630039      -0.01518661
Pt       1.40253872       2.42418468      26.91240862        1       0.00264160       0.02599987      -0.01480356
Pt       4.18761642       2.41599046      27.01293248        1       0.02510205       0.01400115       0.03320073
Pt       7.04273884       2.41859056      27.01293254        1      -0.02467387       0.01472130       0.03319783
Pt       2.78934288       4.87065672      26.90198668        1      -0.03058700       0.01963357      -0.01519411
Pt       5.61292704       4.88989479      27.01292434        1      -0.00041364      -0.02873239       0.03322153
Pt       8.43787085       4.87350528      26.90198509        1       0.03228736       0.01666878      -0.01518945
O        5.61442607       3.24149519      29.54890805        0      -0.00000040      -0.00000030      -0.04404330
C        5.61442517       3.24149154      28.34771087        0       0.00000529       0.00000147      -0.03129534
