38
Lattice="8.421641763931781 0.0 0.0 4.2108208819658905 7.293355709136913 0.0 0.0 0.0 46.87624170604845" Properties=species:S:1:pos:R:3:tags:I:1:forces:R:3 charge=0 spin=0 energy=-202.91278934121837 free_energy=-202.91278934121837 stress="0.009971537627279758 1.2777549018849754e-09 2.5961444105604414e-09 1.2777549018849754e-09 0.009971549734473228 3.236571188836024e-08 2.5961444105604414e-09 3.236571188836024e-08 -0.0003316738293506205" pbc="T T T"
Pt      -0.00000000       0.00000021      19.95723433        4      -0.01513350      -0.00894293       0.01087221
Pt       2.80721396      -0.00000008      19.95723446        4       0.01526817      -0.00864870       0.01087312
Pt       5.61442779      -0.00000016      19.95723449        4      -0.00261619       0.00265526       0.01326773
Pt       1.40360720       2.43111835      19.95723435        4      -0.00013693       0.01759416       0.01084999
Pt       4.21082080       2.43111834      19.95723443        4      -0.00120502      -0.00103746       0.01745178
Pt       7.01803483       2.43111844      19.95723431        4       0.00152757      -0.00053177       0.01739980
Pt       2.80721405       4.86223724      19.95723403        4       0.00363196       0.00093341       0.01329892
Pt       5.61442805       4.86223734      19.95723421        4      -0.00032271       0.00156948       0.01745500
Pt       8.42164144       4.86223725      19.95723437        4      -0.00101324      -0.00359361       0.01324655
Pt       1.40360728       0.81037258      22.29206792        3      -0.00000302       0.00000157      -0.28044891
Pt       4.21082126       0.81037248      22.29206794        3      -0.03856370      -0.00521741      -0.06506810
Pt       7.01803474       0.81037256      22.29206786        3       0.03311532      -0.01020799      -0.06619873
Pt       2.80721448       3.24149124      22.29206779        3      -0.02536381      -0.02363527      -0.06623343
Pt       5.61442762       3.24149125      22.29206790        3       0.00000452       0.00000190      -0.01227479
Pt       8.42164155       3.24149130      22.29206809        3       0.02383257      -0.03088340      -0.06512259
Pt       4.21082091       5.67260997      22.29206801        3       0.01473541       0.03610673      -0.06512761
Pt       7.01803488       5.67261037      22.29206781        3      -0.00776209       0.03384214      -0.06614926
Pt       9.82524819       5.67261065      22.29206808        3       0.00000529      -0.00001172      -0.07464482
Pt      -0.00000056       1.62074567      24.58417371        2      -0.09317566       0.05522892       0.13473004
Pt       2.80721444       1.62074547      24.58417389        2       0.09435239       0.05301398       0.13474698
Pt       5.61442780       1.62074536      24.58417372        2       0.00011512       0.06976214       0.16784465
Pt       1.40360637       4.05186441      24.58417386        2       0.00247836      -0.03167877      -0.06475396
Pt       4.21082088       4.05186402      24.58417378        2       0.06040270      -0.03496654       0.16789512
Pt       7.01803505       4.05186404      24.58417403        2      -0.06050136      -0.03478991       0.16793883
Pt       2.80721282       6.48298342      24.58417366        2       0.02620328       0.01806705      -0.06487389
Pt       5.61442796       6.48298327      24.58417384        2      -0.00119416      -0.10823569       0.13471998
Pt       8.42164224       6.48298339      24.58417376        2      -0.02868029       0.01360842      -0.06480927
Pt       0.00282665       0.00033124      26.91103763        1       0.00140043       0.00372625      -0.01239787
Pt       2.80551596       0.00228450      26.91103584        1      -0.00393021      -0.00065526      -0.01239197
Pt       5.61544312      -0.02615277      26.90106744        1      -0.00007658       0.01723092      -0.00424967
Pt       1.40247953       2.42850769      26.91103818        1       0.00252452      -0.00307528      -0.01239992
Pt       4.18688009       2.41619221      27.01816807        1       0.01180296       0.00460577      -0.00611108
Pt       7.04293244       2.41785117      27.01816885        1      -0.00988583       0.00791229      -0.00612002
Pt       2.78405390       4.87443934      26.90105837        1       0.01496409      -0.00855614      -0.00422556
Pt       5.61346982       4.89043204      27.01816409        1      -0.00190944      -0.01251023      -0.00610253
Pt       8.44378524       4.87619753      26.90105799        1      -0.01488917      -0.00868754      -0.00422450
O        5.61442749       3.24149247      29.54575407        0      -0.00000186       0.00000068      -0.01642587
C        5.61442761       3.24149019      28.34420395        0       0.00000013       0.00000456       0.00776362
