38
Lattice="8.421641763931781 0.0 0.0 4.2108208819658905 7.293355709136913 0.0 0.0 0.0 46.87624170604845" Properties=species:S:1:pos:R:3:tags:I:1:forces:R:3 charge=0 spin=0 energy=-202.91224002481212 free_energy=-202.91224002481212 stress="0.009914923459291458 5.621016541113022e-09 5.9624252202183925e-09 5.621016541113022e-09 0.009914934635162354 3.658771063896893e-08 5.9624252202183925e-09 3.658771063896893e-08 -0.0004492006846703589" pbc="T T T"
Pt      -0.00000000       0.00000021      19.95723433        4      -0.01509372      -0.00889691       0.01065173
Pt       2.80721396      -0.00000008      19.95723446        4       0.01520753      -0.00863732       0.01065271
Pt       5.61442779      -0.00000016      19.95723449        4      -0.00268191       0.00254201       0.01324689
Pt       1.40360720       2.43111835      19.95723435        4      -0.00011579       0.01753771       0.01062773
Pt       4.21082080       2.43111834      19.95723443        4      -0.00072746      -0.00061609       0.01699635
Pt       7.01803483       2.43111844      19.95723431        4       0.00092521      -0.00032749       0.01694380
Pt       2.80721405       4.86223724      19.95723403        4       0.00356655       0.00104524       0.01327658
Pt       5.61442805       4.86223734      19.95723421        4      -0.00019720       0.00094487       0.01699915
Pt       8.42164144       4.86223725      19.95723437        4      -0.00088332      -0.00359365       0.01322352
Pt       1.40360728       0.81037258      22.29206792        3      -0.00000350       0.00000184      -0.28189215
Pt       4.21082126       0.81037248      22.29206794        3      -0.03930429      -0.00576821      -0.06578042
Pt       7.01803474       0.81037256      22.29206786        3       0.03379171      -0.01058634      -0.06688836
Pt       2.80721448       3.24149124      22.29206779        3      -0.02602977      -0.02403424      -0.06692947
Pt       5.61442762       3.24149125      22.29206790        3       0.00000401      -0.00000005      -0.00723760
Pt       8.42164155       3.24149130      22.29206809        3       0.02467749      -0.03125058      -0.06583085
Pt       4.21082091       5.67260997      22.29206801        3       0.01463058       0.03702511      -0.06584259
Pt       7.01803488       5.67261037      22.29206781        3      -0.00777367       0.03461967      -0.06683478
Pt       9.82524819       5.67261065      22.29206808        3       0.00000539      -0.00000991      -0.07234565
Pt      -0.00000056       1.62074567      24.58417371        2      -0.09373632       0.05536527       0.13137612
Pt       2.80721444       1.62074547      24.58417389        2       0.09471896       0.05344924       0.13140638
Pt       5.61442780       1.62074536      24.58417372        2       0.00058268       0.07584336       0.14731807
Pt       1.40360637       4.05186441      24.58417386        2       0.00295835      -0.02852825      -0.08111480
Pt       4.21082088       4.05186402      24.58417378        2       0.06541999      -0.03840216       0.14739433
Pt       7.01803505       4.05186404      24.58417403        2      -0.06597575      -0.03740501       0.14743795
Pt       2.80721282       6.48298342      24.58417366        2       0.02323926       0.01690884      -0.08128068
Pt       5.61442796       6.48298327      24.58417384        2      -0.00099644      -0.10879623       0.13135727
Pt       8.42164224       6.48298339      24.58417376        2      -0.02620606       0.01156992      -0.08119873
Pt      -0.00162752      -0.00145821      26.90726253        1       0.02674430       0.01730608      -0.00430211
Pt       2.80931812      -0.00068598      26.90727389        1      -0.02845260       0.01451287      -0.00432910
Pt       5.61502833      -0.01796668      26.89432744        1       0.00197312      -0.03845090       0.01697424
Pt       1.40315203       2.43327304      26.90728791        1       0.00164119      -0.03185827      -0.00436521
Pt       4.19044193       2.41676279      27.01638968        1      -0.02167880      -0.00956474       0.00068520
Pt       7.04065055       2.42065925      27.01639432        1       0.01917198      -0.01402699       0.00066002
Pt       2.79134192       4.87070865      26.89433535        1      -0.03422785       0.01750275       0.01694253
Pt       5.61218018       4.88705869      27.01639099        1       0.00253949       0.02360829       0.00066310
Pt       8.43690648       4.87173234      26.89435447        1       0.03229481       0.02096892       0.01688216
O        5.61442428       3.24149256      29.54616176        0      -0.00000858      -0.00000331       0.00903508
C        5.61442288       3.24149180      28.34500160        0       0.00000056       0.00000459      -0.00457838
