38
Lattice="8.421641763931781 0.0 0.0 4.2108208819658905 7.293355709136913 0.0 0.0 0.0 46.87624170604845" Properties=species:S:1:pos:R:3:tags:I:1:forces:R:3 charge=0 spin=0 energy=-202.91268252969493 free_energy=-202.91268252969493 stress="0.00991795677691698 8.031076248471436e-09 1.5185224189195878e-09 8.031076248471436e-09 0.009917975403368473 4.215248239347602e-08 1.5185224189195878e-09 4.215248239347602e-08 -0.0004362754407338798" pbc="T T T"
Pt      -0.00000000       0.00000021      19.95723433        4      -0.01510541      -0.00890256       0.01075510
Pt       2.80721396      -0.00000008      19.95723446        4       0.01521850      -0.00864523       0.01075540
Pt       5.61442779      -0.00000016      19.95723449        4      -0.00268128       0.00268501       0.01332013
Pt       1.40360720       2.43111835      19.95723435        4      -0.00011496       0.01755077       0.01073229
Pt       4.21082080       2.43111834      19.95723443        4      -0.00086590      -0.00082351       0.01724111
Pt       7.01803483       2.43111844      19.95723431        4       0.00117349      -0.00034427       0.01718929
Pt       2.80721405       4.86223724      19.95723403        4       0.00369097       0.00097498       0.01335100
Pt       5.61442805       4.86223734      19.95723421        4      -0.00030845       0.00116899       0.01724433
Pt       8.42164144       4.86223725      19.95723437        4      -0.00100739      -0.00366564       0.01329873
Pt       1.40360728       0.81037258      22.29206792        3      -0.00000327       0.00000237      -0.28144139
Pt       4.21082126       0.81037248      22.29206794        3      -0.03870828      -0.00531131      -0.06537902
Pt       7.01803474       0.81037256      22.29206786        3       0.03318572      -0.01032811      -0.06679126
Pt       2.80721448       3.24149124      22.29206779        3      -0.02550426      -0.02363653      -0.06682852
Pt       5.61442762       3.24149125      22.29206790        3       0.00000419       0.00000102      -0.00961199
Pt       8.42164155       3.24149130      22.29206809        3       0.02398468      -0.03096014      -0.06543826
Pt       4.21082091       5.67260997      22.29206801        3       0.01472622       0.03627864      -0.06543799
Pt       7.01803488       5.67261037      22.29206781        3      -0.00769325       0.03396484      -0.06673891
Pt       9.82524819       5.67261065      22.29206808        3       0.00000477      -0.00001060      -0.07412408
Pt      -0.00000056       1.62074567      24.58417371        2      -0.09296043       0.05537212       0.12028347
Pt       2.80721444       1.62074547      24.58417389        2       0.09435850       0.05276226       0.12029678
Pt       5.61442780       1.62074536      24.58417372        2       0.00032752       0.07095912       0.15456343
Pt       1.40360637       4.05186441      24.58417386        2       0.00229678      -0.02609904      -0.06616163
Pt       4.21082088       4.05186402      24.58417378        2       0.06132499      -0.03574477       0.15462965
Pt       7.01803505       4.05186404      24.58417403        2      -0.06163560      -0.03519249       0.15467855
Pt       2.80721282       6.48298342      24.58417366        2       0.02147875       0.01509953      -0.06630550
Pt       5.61442796       6.48298327      24.58417384        2      -0.00142493      -0.10812653       0.12026379
Pt       8.42164224       6.48298339      24.58417376        2      -0.02375858       0.01097017      -0.06624576
Pt       0.00320839       0.00122524      26.90697779        1      -0.00552226      -0.00225052       0.00032144
Pt       2.80455464       0.00216203      26.90697081        1       0.00469959      -0.00364751       0.00034133
Pt       5.61584289      -0.01931890      26.89883985        1      -0.00117983      -0.03353764      -0.00262164
Pt       1.40305724       2.42773299      26.90698500        1       0.00083632       0.00590125       0.00030369
Pt       4.18681277       2.41519840      27.01570352        1       0.00649362       0.00372668      -0.00288143
Pt       7.04381764       2.41829398      27.01570542        1      -0.00643480       0.00374052      -0.00290017
Pt       2.78978271       4.87067733      26.89885054        1      -0.02848008       0.01777082      -0.00265985
Pt       5.61264382       4.89098377      27.01570455        1      -0.00001673      -0.00746048      -0.00289833
Pt       8.43767550       4.87311785      26.89884904        1       0.02960430       0.01576059      -0.00265523
O        5.61442531       3.24149310      29.53989752        0      -0.00000673      -0.00000438       0.01418643
C        5.61442347       3.24149169      28.33849534        0       0.00000351       0.00000130       0.01336513
