38
Lattice="8.421641763931781 0.0 0.0 4.2108208819658905 7.293355709136913 0.0 0.0 0.0 46.87624170604845" Properties=species:S:1:pos:R:3:tags:I:1:forces:R:3 charge=0 spin=0 energy=-202.9126806223463 free_energy=-202.9126806223463 stress="0.009917964227497578 5.3595741178469325e-09 8.593167843962135e-10 5.3595741178469325e-09 0.00991798099130392 3.9892945835617866e-08 8.593167843962135e-10 3.9892945835617866e-08 -0.00043638059287332" pbc="T T T"
Pt      -0.00000000       0.00000021      19.95723433        4      -0.01510524      -0.00890239       0.01075519
Pt       2.80721396      -0.00000008      19.95723446        4       0.01521835      -0.00864520       0.01075576
Pt       5.61442779      -0.00000016      19.95723449        4      -0.00268117       0.00268511       0.01332019
Pt       1.40360720       2.43111835      19.95723435        4      -0.00011492       0.01755057       0.01073243
Pt       4.21082080       2.43111834      19.95723443        4      -0.00086614      -0.00082346       0.01724117
Pt       7.01803483       2.43111844      19.95723431        4       0.00117346      -0.00034443       0.01718944
Pt       2.80721405       4.86223724      19.95723403        4       0.00369096       0.00097501       0.01335115
Pt       5.61442805       4.86223734      19.95723421        4      -0.00030824       0.00116914       0.01724418
Pt       8.42164144       4.86223725      19.95723437        4      -0.00100746      -0.00366557       0.01329880
Pt       1.40360728       0.81037258      22.29206792        3      -0.00000344       0.00000231      -0.28144059
Pt       4.21082126       0.81037248      22.29206794        3      -0.03870816      -0.00531115      -0.06537925
Pt       7.01803474       0.81037256      22.29206786        3       0.03318561      -0.01032808      -0.06679112
Pt       2.80721448       3.24149124      22.29206779        3      -0.02550391      -0.02363639      -0.06682821
Pt       5.61442762       3.24149125      22.29206790        3       0.00000429       0.00000099      -0.00961213
Pt       8.42164155       3.24149130      22.29206809        3       0.02398469      -0.03096030      -0.06543813
Pt       4.21082091       5.67260997      22.29206801        3       0.01472615       0.03627853      -0.06543822
Pt       7.01803488       5.67261037      22.29206781        3      -0.00769338       0.03396480      -0.06673880
Pt       9.82524819       5.67261065      22.29206808        3       0.00000481      -0.00001056      -0.07412432
Pt      -0.00000056       1.62074567      24.58417371        2      -0.09296136       0.05537383       0.12028175
Pt       2.80721444       1.62074547      24.58417389        2       0.09435880       0.05276263       0.12029651
Pt       5.61442780       1.62074536      24.58417372        2       0.00032743       0.07095966       0.15456416
Pt       1.40360637       4.05186441      24.58417386        2       0.00229665      -0.02609893      -0.06616218
Pt       4.21082088       4.05186402      24.58417378        2       0.06132451      -0.03574621       0.15462886
Pt       7.01803505       4.05186404      24.58417403        2      -0.06163524      -0.03519319       0.15467735
Pt       2.80721282       6.48298342      24.58417366        2       0.02147723       0.01509902      -0.06630809
Pt       5.61442796       6.48298327      24.58417384        2      -0.00142360      -0.10812653       0.12026006
Pt       8.42164224       6.48298339      24.58417376        2      -0.02375834       0.01096991      -0.06624629
Pt       0.00320838       0.00122513      26.90697759        1      -0.00552294      -0.00224872       0.00032901
Pt       2.80455463       0.00216192      26.90697067        1       0.00470087      -0.00364654       0.00034200
Pt       5.61584294      -0.01931890      26.89883960        1      -0.00118017      -0.03353607      -0.00262105
Pt       1.40305706       2.42773296      26.90698513        1       0.00083778       0.00590209       0.00030462
Pt       4.18681242       2.41519818      27.01570307        1       0.00650482       0.00373342      -0.00287721
Pt       7.04381787       2.41829391      27.01570465        1      -0.00644555       0.00374623      -0.00289603
Pt       2.78978273       4.87067731      26.89885050        1      -0.02847956       0.01776920      -0.00265939
Pt       5.61264379       4.89098424      27.01570378        1      -0.00001664      -0.00747740      -0.00288531
Pt       8.43767572       4.87311800      26.89884900        1       0.02960333       0.01575993      -0.00265523
O        5.61442527       3.24149295      29.53989739        0      -0.00000713      -0.00000224       0.01445200
C        5.61442351       3.24149171      28.33849816        0       0.00000299       0.00000097       0.01307702
