38
Lattice="8.421641763931781 0.0 0.0 4.2108208819658905 7.293355709136913 0.0 0.0 0.0 46.87624170604845" Properties=species:S:1:pos:R:3:tags:I:1:forces:R:3 charge=0 spin=0 energy=-202.91278934121837 free_energy=-202.91278934121837 stress="0.00997153576463461 2.336413507109114e-09 2.32682961787134e-09 2.336413507109114e-09 0.009971550665795803 3.202715959105262e-08 2.32682961787134e-09 3.202715959105262e-08 -0.0003316738875582814" pbc="T T T"
Pt      -0.00000000       0.00000021      19.95723433        4      -0.01513336      -0.00894281       0.01087236
Pt       2.80721396      -0.00000008      19.95723446        4       0.01526814      -0.00864877       0.01087300
Pt       5.61442779      -0.00000016      19.95723449        4      -0.00261625       0.00265526       0.01326761
Pt       1.40360720       2.43111835      19.95723435        4      -0.00013691       0.01759433       0.01084991
Pt       4.21082080       2.43111834      19.95723443        4      -0.00120514      -0.00103756       0.01745158
Pt       7.01803483       2.43111844      19.95723431        4       0.00152758      -0.00053178       0.01739983
Pt       2.80721405       4.86223724      19.95723403        4       0.00363188       0.00093338       0.01329892
Pt       5.61442805       4.86223734      19.95723421        4      -0.00032259       0.00156960       0.01745481
Pt       8.42164144       4.86223725      19.95723437        4      -0.00101313      -0.00359361       0.01324657
Pt       1.40360728       0.81037258      22.29206792        3      -0.00000289       0.00000156      -0.28044882
Pt       4.21082126       0.81037248      22.29206794        3      -0.03856375      -0.00521763      -0.06506804
Pt       7.01803474       0.81037256      22.29206786        3       0.03311532      -0.01020789      -0.06619841
Pt       2.80721448       3.24149124      22.29206779        3      -0.02536394      -0.02363519      -0.06623362
Pt       5.61442762       3.24149125      22.29206790        3       0.00000450       0.00000179      -0.01227519
Pt       8.42164155       3.24149130      22.29206809        3       0.02383254      -0.03088335      -0.06512276
Pt       4.21082091       5.67260997      22.29206801        3       0.01473537       0.03610671      -0.06512754
Pt       7.01803488       5.67261037      22.29206781        3      -0.00776206       0.03384230      -0.06614913
Pt       9.82524819       5.67261065      22.29206808        3       0.00000527      -0.00001167      -0.07464463
Pt      -0.00000056       1.62074567      24.58417371        2      -0.09317599       0.05522878       0.13472970
Pt       2.80721444       1.62074547      24.58417389        2       0.09435213       0.05301355       0.13474688
Pt       5.61442780       1.62074536      24.58417372        2       0.00011506       0.06976222       0.16784480
Pt       1.40360637       4.05186441      24.58417386        2       0.00247804      -0.03167924      -0.06475462
Pt       4.21082088       4.05186402      24.58417378        2       0.06040273      -0.03496619       0.16789648
Pt       7.01803505       4.05186404      24.58417403        2      -0.06050145      -0.03478990       0.16793911
Pt       2.80721282       6.48298342      24.58417366        2       0.02620354       0.01806699      -0.06487354
Pt       5.61442796       6.48298327      24.58417384        2      -0.00119416      -0.10823554       0.13471968
Pt       8.42164224       6.48298339      24.58417376        2      -0.02868043       0.01360912      -0.06481050
Pt       0.00282657       0.00033124      26.91103751        1       0.00139994       0.00372662      -0.01239785
Pt       2.80551608       0.00228438      26.91103591        1      -0.00393001      -0.00065389      -0.01239206
Pt       5.61544305      -0.02615288      26.90106764        1      -0.00007643       0.01723250      -0.00424933
Pt       1.40247943       2.42850771      26.91103805        1       0.00252578      -0.00307517      -0.01239958
Pt       4.18688015       2.41619224      27.01816801        1       0.01180287       0.00460716      -0.00611201
Pt       7.04293251       2.41785111      27.01816876        1      -0.00988700       0.00791291      -0.00611933
Pt       2.78405360       4.87443939      26.90105836        1       0.01496842      -0.00855705      -0.00422507
Pt       5.61346989       4.89043220      27.01816385        1      -0.00191225      -0.01251400      -0.00610171
Pt       8.44378530       4.87619765      26.90105795        1      -0.01489002      -0.00868932      -0.00422454
O        5.61442732       3.24149247      29.54575338        0      -0.00000062       0.00000103      -0.01642633
C        5.61442780       3.24149018      28.34420470        0      -0.00000083       0.00000490       0.00776328
