38
Lattice="8.421641763931781 0.0 0.0 4.2108208819658905 7.293355709136913 0.0 0.0 0.0 46.87624170604845" Properties=species:S:1:pos:R:3:tags:I:1:forces:R:3 charge=0 spin=0 energy=-202.91268539071788 free_energy=-202.91268539071788 stress="0.009917963296175003 1.8613979246850931e-09 1.6685101078550701e-09 1.8613979246850931e-09 0.00991797260940075 4.078717452671299e-08 1.6685101078550701e-09 4.078717452671299e-08 -0.000436450878623873" pbc="T T T"
Pt      -0.00000000       0.00000021      19.95723433        4      -0.01510528      -0.00890257       0.01075523
Pt       2.80721396      -0.00000008      19.95723446        4       0.01521827      -0.00864498       0.01075563
Pt       5.61442779      -0.00000016      19.95723449        4      -0.00268115       0.00268500       0.01332013
Pt       1.40360720       2.43111835      19.95723435        4      -0.00011514       0.01755064       0.01073235
Pt       4.21082080       2.43111834      19.95723443        4      -0.00086613      -0.00082346       0.01724136
Pt       7.01803483       2.43111844      19.95723431        4       0.00117347      -0.00034441       0.01718952
Pt       2.80721405       4.86223724      19.95723403        4       0.00369109       0.00097508       0.01335111
Pt       5.61442805       4.86223734      19.95723421        4      -0.00030847       0.00116914       0.01724440
Pt       8.42164144       4.86223725      19.95723437        4      -0.00100742      -0.00366559       0.01329865
Pt       1.40360728       0.81037258      22.29206792        3      -0.00000332       0.00000244      -0.28144050
Pt       4.21082126       0.81037248      22.29206794        3      -0.03870831      -0.00531093      -0.06537909
Pt       7.01803474       0.81037256      22.29206786        3       0.03318572      -0.01032798      -0.06679123
Pt       2.80721448       3.24149124      22.29206779        3      -0.02550379      -0.02363660      -0.06682821
Pt       5.61442762       3.24149125      22.29206790        3       0.00000411       0.00000114      -0.00961252
Pt       8.42164155       3.24149130      22.29206809        3       0.02398519      -0.03096017      -0.06543791
Pt       4.21082091       5.67260997      22.29206801        3       0.01472642       0.03627869      -0.06543835
Pt       7.01803488       5.67261037      22.29206781        3      -0.00769370       0.03396476      -0.06673911
Pt       9.82524819       5.67261065      22.29206808        3       0.00000485      -0.00001056      -0.07412418
Pt      -0.00000056       1.62074567      24.58417371        2      -0.09296113       0.05537346       0.12028162
Pt       2.80721444       1.62074547      24.58417389        2       0.09435875       0.05276296       0.12029740
Pt       5.61442780       1.62074536      24.58417372        2       0.00032718       0.07095931       0.15456471
Pt       1.40360637       4.05186441      24.58417386        2       0.00229643      -0.02609951      -0.06616322
Pt       4.21082088       4.05186402      24.58417378        2       0.06132418      -0.03574571       0.15462932
Pt       7.01803505       4.05186404      24.58417403        2      -0.06163527      -0.03519328       0.15467727
Pt       2.80721282       6.48298342      24.58417366        2       0.02147771       0.01509899      -0.06630864
Pt       5.61442796       6.48298327      24.58417384        2      -0.00142358      -0.10812661       0.12025990
Pt       8.42164224       6.48298339      24.58417376        2      -0.02375869       0.01097020      -0.06624644
Pt       0.00320840       0.00122520      26.90697743        1      -0.00552482      -0.00224829       0.00032922
Pt       2.80455470       0.00216202      26.90697083        1       0.00470044      -0.00364631       0.00034196
Pt       5.61584318      -0.01931915      26.89883951        1      -0.00118047      -0.03353209      -0.00262067
Pt       1.40305701       2.42773304      26.90698518        1       0.00083780       0.00590150       0.00030441
Pt       4.18681244       2.41519824      27.01570305        1       0.00650251       0.00373033      -0.00288181
Pt       7.04381802       2.41829385      27.01570426        1      -0.00644339       0.00374409      -0.00289984
Pt       2.78978257       4.87067745      26.89885083        1      -0.02847477       0.01776809      -0.00265990
Pt       5.61264375       4.89098406      27.01570371        1      -0.00001762      -0.00747481      -0.00288976
Pt       8.43767548       4.87311809      26.89884940        1       0.02960258       0.01575916      -0.00265487
O        5.61442519       3.24149306      29.53989676        0      -0.00000626      -0.00000248       0.01460317
C        5.61442362       3.24149156      28.33849848        0       0.00000185       0.00000140       0.01293905
