38
Lattice="8.421641763931781 0.0 0.0 4.2108208819658905 7.293355709136913 0.0 0.0 0.0 46.87624170604845" Properties=species:S:1:pos:R:3:tags:I:1:forces:R:3 charge=0 spin=0 energy=-202.91223430276622 free_energy=-202.91223430276622 stress="0.009914920665323734 6.9024541637929815e-09 7.43801775726638e-09 6.9024541637929815e-09 0.009914934635162354 3.56422695801939e-08 7.43801775726638e-09 3.56422695801939e-08 -0.00044920321670360863" pbc="T T T"
Pt      -0.00000000       0.00000021      19.95723433        4      -0.01509355      -0.00889708       0.01065171
Pt       2.80721396      -0.00000008      19.95723446        4       0.01520735      -0.00863733       0.01065268
Pt       5.61442779      -0.00000016      19.95723449        4      -0.00268179       0.00254187       0.01324689
Pt       1.40360720       2.43111835      19.95723435        4      -0.00011574       0.01753754       0.01062764
Pt       4.21082080       2.43111834      19.95723443        4      -0.00072738      -0.00061599       0.01699643
Pt       7.01803483       2.43111844      19.95723431        4       0.00092526      -0.00032745       0.01694402
Pt       2.80721405       4.86223724      19.95723403        4       0.00356641       0.00104537       0.01327666
Pt       5.61442805       4.86223734      19.95723421        4      -0.00019738       0.00094509       0.01699913
Pt       8.42164144       4.86223725      19.95723437        4      -0.00088333      -0.00359364       0.01322376
Pt       1.40360728       0.81037258      22.29206792        3      -0.00000342       0.00000211      -0.28189173
Pt       4.21082126       0.81037248      22.29206794        3      -0.03930455      -0.00576821      -0.06578051
Pt       7.01803474       0.81037256      22.29206786        3       0.03379203      -0.01058650      -0.06688851
Pt       2.80721448       3.24149124      22.29206779        3      -0.02602965      -0.02403403      -0.06692927
Pt       5.61442762       3.24149125      22.29206790        3       0.00000408       0.00000004      -0.00723822
Pt       8.42164155       3.24149130      22.29206809        3       0.02467734      -0.03125054      -0.06582943
Pt       4.21082091       5.67260997      22.29206801        3       0.01463054       0.03702531      -0.06584279
Pt       7.01803488       5.67261037      22.29206781        3      -0.00777346       0.03461948      -0.06683543
Pt       9.82524819       5.67261065      22.29206808        3       0.00000547      -0.00001018      -0.07234541
Pt      -0.00000056       1.62074567      24.58417371        2      -0.09373637       0.05536528       0.13137537
Pt       2.80721444       1.62074547      24.58417389        2       0.09471781       0.05344867       0.13140434
Pt       5.61442780       1.62074536      24.58417372        2       0.00058349       0.07584268       0.14731607
Pt       1.40360637       4.05186441      24.58417386        2       0.00295813      -0.02852800      -0.08111457
Pt       4.21082088       4.05186402      24.58417378        2       0.06541906      -0.03840177       0.14739114
Pt       7.01803505       4.05186404      24.58417403        2      -0.06597489      -0.03740549       0.14743544
Pt       2.80721282       6.48298342      24.58417366        2       0.02323869       0.01690852      -0.08128127
Pt       5.61442796       6.48298327      24.58417384        2      -0.00099677      -0.10879478       0.13135606
Pt       8.42164224       6.48298339      24.58417376        2      -0.02620562       0.01156988      -0.08119891
Pt      -0.00162768      -0.00145817      26.90726241        1       0.02674825       0.01730486      -0.00430245
Pt       2.80931826      -0.00068604      26.90727394        1      -0.02845342       0.01451327      -0.00432919
Pt       5.61502820      -0.01796656      26.89432736        1       0.00197223      -0.03845173       0.01697459
Pt       1.40315199       2.43327313      26.90728794        1       0.00163976      -0.03185880      -0.00436517
Pt       4.19044202       2.41676286      27.01638877        1      -0.02167528      -0.00956262       0.00069576
Pt       7.04065024       2.42065932      27.01639439        1       0.01916990      -0.01402546       0.00066192
Pt       2.79134211       4.87070858      26.89433417        1      -0.03422982       0.01750344       0.01694255
Pt       5.61218026       4.88705853      27.01639045        1       0.00253698       0.02360437       0.00067138
Pt       8.43690627       4.87173228      26.89435450        1       0.03229958       0.02096967       0.01688271
O        5.61442453       3.24149249      29.54616163        0      -0.00001138      -0.00000200       0.00902805
C        5.61442279       3.24149189      28.34500088        0       0.00000160       0.00000413      -0.00458122
