38
Lattice="8.421641763931781 0.0 0.0 4.2108208819658905 7.293355709136913 0.0 0.0 0.0 46.87624170604845" Properties=species:S:1:pos:R:3:tags:I:1:forces:R:3 charge=0 spin=0 energy=-202.91278934121837 free_energy=-202.91278934121837 stress="0.009971541352570057 5.247264289742759e-10 5.173101391697799e-10 5.247264289742759e-10 0.009971554391086102 3.369602197267341e-08 5.173101391697799e-10 3.369602197267341e-08 -0.0003317287191748619" pbc="T T T"
Pt      -0.00000000       0.00000021      19.95723433        4      -0.01513323      -0.00894284       0.01087236
Pt       2.80721396      -0.00000008      19.95723446        4       0.01526815      -0.00864859       0.01087321
Pt       5.61442779      -0.00000016      19.95723449        4      -0.00261627       0.00265535       0.01326803
Pt       1.40360720       2.43111835      19.95723435        4      -0.00013681       0.01759438       0.01084978
Pt       4.21082080       2.43111834      19.95723443        4      -0.00120515      -0.00103756       0.01745175
Pt       7.01803483       2.43111844      19.95723431        4       0.00152753      -0.00053199       0.01739993
Pt       2.80721405       4.86223724      19.95723403        4       0.00363177       0.00093327       0.01329882
Pt       5.61442805       4.86223734      19.95723421        4      -0.00032259       0.00156949       0.01745479
Pt       8.42164144       4.86223725      19.95723437        4      -0.00101302      -0.00359373       0.01324661
Pt       1.40360728       0.81037258      22.29206792        3      -0.00000328       0.00000156      -0.28044856
Pt       4.21082126       0.81037248      22.29206794        3      -0.03856374      -0.00521748      -0.06506800
Pt       7.01803474       0.81037256      22.29206786        3       0.03311472      -0.01020756      -0.06619827
Pt       2.80721448       3.24149124      22.29206779        3      -0.02536422      -0.02363544      -0.06623396
Pt       5.61442762       3.24149125      22.29206790        3       0.00000456       0.00000161      -0.01227485
Pt       8.42164155       3.24149130      22.29206809        3       0.02383193      -0.03088282      -0.06512248
Pt       4.21082091       5.67260997      22.29206801        3       0.01473539       0.03610731      -0.06512808
Pt       7.01803488       5.67261037      22.29206781        3      -0.00776210       0.03384230      -0.06614918
Pt       9.82524819       5.67261065      22.29206808        3       0.00000573      -0.00001138      -0.07464410
Pt      -0.00000056       1.62074567      24.58417371        2      -0.09317576       0.05522915       0.13473165
Pt       2.80721444       1.62074547      24.58417389        2       0.09435359       0.05301430       0.13474949
Pt       5.61442780       1.62074536      24.58417372        2       0.00011422       0.06976286       0.16784613
Pt       1.40360637       4.05186441      24.58417386        2       0.00247814      -0.03167923      -0.06475574
Pt       4.21082088       4.05186402      24.58417378        2       0.06040262      -0.03496731       0.16789809
Pt       7.01803505       4.05186404      24.58417403        2      -0.06050169      -0.03478998       0.16793837
Pt       2.80721282       6.48298342      24.58417366        2       0.02620302       0.01806666      -0.06487461
Pt       5.61442796       6.48298327      24.58417384        2      -0.00119422      -0.10823614       0.13472134
Pt       8.42164224       6.48298339      24.58417376        2      -0.02868026       0.01360870      -0.06480958
Pt       0.00282599       0.00033097      26.91103709        1       0.00140397       0.00372788      -0.01239797
Pt       2.80551649       0.00228413      26.91103585        1      -0.00393266      -0.00065219      -0.01239257
Pt       5.61544309      -0.02615275      26.90106752        1      -0.00007839       0.01723292      -0.00424916
Pt       1.40247956       2.42850843      26.91103810        1       0.00252580      -0.00307982      -0.01240022
Pt       4.18688041       2.41619231      27.01816857        1       0.01179755       0.00460368      -0.00612099
Pt       7.04293208       2.41785140      27.01816878        1      -0.00988235       0.00790992      -0.00612061
Pt       2.78405352       4.87443935      26.90105796        1       0.01496938      -0.00855770      -0.00422461
Pt       5.61346993       4.89043160      27.01816429        1      -0.00191155      -0.01250813      -0.00610400
Pt       8.44378570       4.87619742      26.90105752        1      -0.01489050      -0.00868773      -0.00422397
O        5.61442713       3.24149267      29.54575370        0       0.00000100       0.00000145      -0.01628460
C        5.61442767       3.24149014      28.34420610        0      -0.00000161       0.00000475       0.00762583
