38
Lattice="8.421641763931781 0.0 0.0 4.2108208819658905 7.293355709136913 0.0 0.0 0.0 46.87624170604845" Properties=species:S:1:pos:R:3:tags:I:1:forces:R:3 charge=0 spin=0 energy=-202.9120635950636 free_energy=-202.9120635950636 stress="0.009984041564166546 5.88430060233236e-09 -1.4973851047983544e-09 5.88430060233236e-09 0.009984067641198635 3.9300374510276015e-08 -1.4973851047983544e-09 3.9300374510276015e-08 -0.000300922169117257" pbc="T T T"
Pt      -0.00000000       0.00000021      19.95723433        4      -0.01525289      -0.00890645       0.01067556
Pt       2.80721396      -0.00000008      19.95723446        4       0.01529597      -0.00877061       0.01067563
Pt       5.61442779      -0.00000016      19.95723449        4      -0.00267869       0.00279330       0.01343561
Pt       1.40360720       2.43111835      19.95723435        4      -0.00004518       0.01768027       0.01065305
Pt       4.21082080       2.43111834      19.95723443        4      -0.00094467      -0.00091813       0.01727156
Pt       7.01803483       2.43111844      19.95723431        4       0.00129450      -0.00036506       0.01722067
Pt       2.80721405       4.86223724      19.95723403        4       0.00378249       0.00091806       0.01346919
Pt       5.61442805       4.86223734      19.95723421        4      -0.00035075       0.00128418       0.01727692
Pt       8.42164144       4.86223725      19.95723437        4      -0.00110152      -0.00371658       0.01341684
Pt       1.40360728       0.81037258      22.29206792        3      -0.00000364       0.00000179      -0.27932003
Pt       4.21082126       0.81037248      22.29206794        3      -0.03834911      -0.00538060      -0.06507736
Pt       7.01803474       0.81037256      22.29206786        3       0.03303011      -0.01040784      -0.06643030
Pt       2.80721448       3.24149124      22.29206779        3      -0.02549492      -0.02346233      -0.06646308
Pt       5.61442762       3.24149125      22.29206790        3       0.00000490       0.00000120      -0.01061785
Pt       8.42164155       3.24149130      22.29206809        3       0.02386535      -0.03061064      -0.06513306
Pt       4.21082091       5.67260997      22.29206801        3       0.01448799       0.03599904      -0.06513306
Pt       7.01803488       5.67261037      22.29206781        3      -0.00754657       0.03387081      -0.06637120
Pt       9.82524819       5.67261065      22.29206808        3       0.00000582      -0.00001068      -0.07606819
Pt      -0.00000056       1.62074567      24.58417371        2      -0.09206273       0.05484605       0.12830421
Pt       2.80721444       1.62074547      24.58417389        2       0.09345901       0.05225337       0.12831159
Pt       5.61442780       1.62074536      24.58417372        2       0.00036310       0.06672606       0.15598674
Pt       1.40360637       4.05186441      24.58417386        2       0.00225036      -0.02791087      -0.05021349
Pt       4.21082088       4.05186402      24.58417378        2       0.05764256      -0.03366590       0.15602973
Pt       7.01803505       4.05186404      24.58417403        2      -0.05799017      -0.03305173       0.15607536
Pt       2.80721282       6.48298342      24.58417366        2       0.02305601       0.01596952      -0.05033919
Pt       5.61442796       6.48298327      24.58417384        2      -0.00141221      -0.10708421       0.12827347
Pt       8.42164224       6.48298339      24.58417376        2      -0.02530165       0.01191752      -0.05028067
Pt       0.00654158       0.00254026      26.91239795        1      -0.02384619      -0.01069333      -0.01477167
Pt       2.80174328       0.00439511      26.91239631        1       0.02119364      -0.01530013      -0.01476571
Pt       5.61607283      -0.01968581      26.90198550        1      -0.00171014      -0.03630062      -0.01518673
Pt       1.40253857       2.42418448      26.91240924        1       0.00264405       0.02600107      -0.01480335
Pt       4.18761648       2.41599046      27.01293176        1       0.02510197       0.01399959       0.03319452
Pt       7.04273925       2.41859024      27.01293189        1      -0.02467584       0.01472353       0.03319325
Pt       2.78934314       4.87065668      26.90198682        1      -0.03059176       0.01963344      -0.01519424
Pt       5.61292675       4.88989499      27.01292418        1      -0.00041224      -0.02873156       0.03321501
Pt       8.43787058       4.87350520      26.90198541        1       0.03228828       0.01666882      -0.01518971
O        5.61442595       3.24149529      29.54890440        0       0.00000033      -0.00000059      -0.04361136
C        5.61442551       3.24149176      28.34771396        0       0.00000438       0.00000026      -0.03170857
