38
Lattice="8.421641763931781 0.0 0.0 4.2108208819658905 7.293355709136913 0.0 0.0 0.0 46.87624170604845" Properties=species:S:1:pos:R:3:tags:I:1:forces:R:3 charge=0 spin=0 energy=-202.9126806223463 free_energy=-202.9126806223463 stress="0.009917961433529854 5.3835087499010115e-09 -8.087913672127911e-11 5.3835087499010115e-09 0.009917975403368473 3.967378248148634e-08 -8.087913672127911e-11 3.967378248148634e-08 -0.0004363287298474461" pbc="T T T"
Pt      -0.00000000       0.00000021      19.95723433        4      -0.01510536      -0.00890245       0.01075527
Pt       2.80721396      -0.00000008      19.95723446        4       0.01521844      -0.00864510       0.01075555
Pt       5.61442779      -0.00000016      19.95723449        4      -0.00268118       0.00268505       0.01332009
Pt       1.40360720       2.43111835      19.95723435        4      -0.00011503       0.01755052       0.01073241
Pt       4.21082080       2.43111834      19.95723443        4      -0.00086609      -0.00082344       0.01724117
Pt       7.01803483       2.43111844      19.95723431        4       0.00117365      -0.00034437       0.01718935
Pt       2.80721405       4.86223724      19.95723403        4       0.00369094       0.00097495       0.01335111
Pt       5.61442805       4.86223734      19.95723421        4      -0.00030839       0.00116916       0.01724425
Pt       8.42164144       4.86223725      19.95723437        4      -0.00100736      -0.00366565       0.01329867
Pt       1.40360728       0.81037258      22.29206792        3      -0.00000354       0.00000241      -0.28144082
Pt       4.21082126       0.81037248      22.29206794        3      -0.03870814      -0.00531105      -0.06537924
Pt       7.01803474       0.81037256      22.29206786        3       0.03318559      -0.01032811      -0.06679098
Pt       2.80721448       3.24149124      22.29206779        3      -0.02550403      -0.02363638      -0.06682821
Pt       5.61442762       3.24149125      22.29206790        3       0.00000403       0.00000110      -0.00961229
Pt       8.42164155       3.24149130      22.29206809        3       0.02398479      -0.03096030      -0.06543815
Pt       4.21082091       5.67260997      22.29206801        3       0.01472616       0.03627855      -0.06543800
Pt       7.01803488       5.67261037      22.29206781        3      -0.00769367       0.03396473      -0.06673913
Pt       9.82524819       5.67261065      22.29206808        3       0.00000489      -0.00001060      -0.07412416
Pt      -0.00000056       1.62074567      24.58417371        2      -0.09296101       0.05537359       0.12028158
Pt       2.80721444       1.62074547      24.58417389        2       0.09435838       0.05276230       0.12029645
Pt       5.61442780       1.62074536      24.58417372        2       0.00032755       0.07095926       0.15456460
Pt       1.40360637       4.05186441      24.58417386        2       0.00229665      -0.02609899      -0.06616217
Pt       4.21082088       4.05186402      24.58417378        2       0.06132456      -0.03574611       0.15462856
Pt       7.01803505       4.05186404      24.58417403        2      -0.06163521      -0.03519315       0.15467733
Pt       2.80721282       6.48298342      24.58417366        2       0.02147738       0.01509900      -0.06630855
Pt       5.61442796       6.48298327      24.58417384        2      -0.00142357      -0.10812622       0.12025984
Pt       8.42164224       6.48298339      24.58417376        2      -0.02375826       0.01097001      -0.06624617
Pt       0.00320836       0.00122523      26.90697749        1      -0.00552262      -0.00224852       0.00032882
Pt       2.80455464       0.00216201      26.90697075        1       0.00470083      -0.00364640       0.00034173
Pt       5.61584279      -0.01931906      26.89883965        1      -0.00118063      -0.03353333      -0.00262096
Pt       1.40305726       2.42773297      26.90698517        1       0.00083767       0.00590177       0.00030441
Pt       4.18681246       2.41519813      27.01570304        1       0.00650212       0.00373063      -0.00287889
Pt       7.04381781       2.41829391      27.01570520        1      -0.00644318       0.00374434      -0.00289715
Pt       2.78978259       4.87067746      26.89885078        1      -0.02847960       0.01776874      -0.00265937
Pt       5.61264375       4.89098409      27.01570402        1      -0.00001635      -0.00747458      -0.00288686
Pt       8.43767581       4.87311804      26.89884905        1       0.02960330       0.01575961      -0.00265529
O        5.61442531       3.24149314      29.53989707        0      -0.00000697      -0.00000287       0.01431658
C        5.61442350       3.24149156      28.33849693        0       0.00000342       0.00000191       0.01321863
