38
Lattice="8.421641763931781 0.0 0.0 4.2108208819658905 7.293355709136913 0.0 0.0 0.0 46.87624170604845" Properties=species:S:1:pos:R:3:tags:I:1:forces:R:3 charge=0 spin=0 energy=-202.91278838754405 free_energy=-202.91278838754405 stress="0.0099715581163764 3.986079466500314e-09 7.442950145097882e-10 3.986079466500314e-09 0.009971574880182743 3.059911435343565e-08 7.442950145097882e-10 3.059911435343565e-08 -0.0003316933289170265" pbc="T T T"
Pt      -0.00000000       0.00000021      19.95723433        4      -0.01513334      -0.00894287       0.01087207
Pt       2.80721396      -0.00000008      19.95723446        4       0.01526807      -0.00864867       0.01087327
Pt       5.61442779      -0.00000016      19.95723449        4      -0.00261636       0.00265535       0.01326773
Pt       1.40360720       2.43111835      19.95723435        4      -0.00013679       0.01759436       0.01084972
Pt       4.21082080       2.43111834      19.95723443        4      -0.00120509      -0.00103745       0.01745173
Pt       7.01803483       2.43111844      19.95723431        4       0.00152770      -0.00053173       0.01739993
Pt       2.80721405       4.86223724      19.95723403        4       0.00363187       0.00093340       0.01329892
Pt       5.61442805       4.86223734      19.95723421        4      -0.00032262       0.00156966       0.01745485
Pt       8.42164144       4.86223725      19.95723437        4      -0.00101317      -0.00359358       0.01324663
Pt       1.40360728       0.81037258      22.29206792        3      -0.00000284       0.00000134      -0.28044781
Pt       4.21082126       0.81037248      22.29206794        3      -0.03856393      -0.00521769      -0.06506793
Pt       7.01803474       0.81037256      22.29206786        3       0.03311511      -0.01020820      -0.06619857
Pt       2.80721448       3.24149124      22.29206779        3      -0.02536405      -0.02363536      -0.06623396
Pt       5.61442762       3.24149125      22.29206790        3       0.00000454       0.00000160      -0.01227463
Pt       8.42164155       3.24149130      22.29206809        3       0.02383243      -0.03088325      -0.06512291
Pt       4.21082091       5.67260997      22.29206801        3       0.01473538       0.03610649      -0.06512723
Pt       7.01803488       5.67261037      22.29206781        3      -0.00776212       0.03384206      -0.06614842
Pt       9.82524819       5.67261065      22.29206808        3       0.00000553      -0.00001169      -0.07464444
Pt      -0.00000056       1.62074567      24.58417371        2      -0.09317676       0.05522959       0.13473067
Pt       2.80721444       1.62074547      24.58417389        2       0.09435348       0.05301493       0.13474864
Pt       5.61442780       1.62074536      24.58417372        2       0.00011535       0.06976280       0.16784529
Pt       1.40360637       4.05186441      24.58417386        2       0.00247809      -0.03167931      -0.06475492
Pt       4.21082088       4.05186402      24.58417378        2       0.06040280      -0.03496648       0.16789696
Pt       7.01803505       4.05186404      24.58417403        2      -0.06050177      -0.03479011       0.16793954
Pt       2.80721282       6.48298342      24.58417366        2       0.02620322       0.01806724      -0.06487288
Pt       5.61442796       6.48298327      24.58417384        2      -0.00119418      -0.10823731       0.13472146
Pt       8.42164224       6.48298339      24.58417376        2      -0.02868062       0.01360893      -0.06481151
Pt       0.00282667       0.00033119      26.91103742        1       0.00139893       0.00372648      -0.01239821
Pt       2.80551592       0.00228434      26.91103568        1      -0.00393170      -0.00065396      -0.01239163
Pt       5.61544300      -0.02615273      26.90106760        1      -0.00007199       0.01723346      -0.00424914
Pt       1.40247940       2.42850769      26.91103819        1       0.00252513      -0.00307527      -0.01239971
Pt       4.18688069       2.41619240      27.01816818        1       0.01181057       0.00461316      -0.00610119
Pt       7.04293209       2.41785139      27.01816882        1      -0.00989486       0.00791737      -0.00610910
Pt       2.78405358       4.87443937      26.90105814        1       0.01496916      -0.00855704      -0.00422503
Pt       5.61346998       4.89043178      27.01816392        1      -0.00191238      -0.01252316      -0.00609041
Pt       8.44378539       4.87619758      26.90105762        1      -0.01489113      -0.00869092      -0.00422386
O        5.61442715       3.24149257      29.54575637        0      -0.00000131       0.00000159      -0.01631466
C        5.61442772       3.24149027      28.34420995        0      -0.00000024       0.00000448       0.00761068
