38
Lattice="8.421641763931781 0.0 0.0 4.2108208819658905 7.293355709136913 0.0 0.0 0.0 46.87624170604845" Properties=species:S:1:pos:R:3:tags:I:1:forces:R:3 charge=0 spin=0 energy=-202.8856334650587 free_energy=-202.8856334650587 stress="0.010025995783507824 -1.6798839652665265e-08 3.4023071027178275e-09 -1.6798839652665265e-08 0.01002601906657219 -1.0930463645308919e-08 3.4023071027178275e-09 -1.0930463645308919e-08 -0.00025339802959933877" pbc="T T T"
Pt      -0.00000000       0.00000021      19.95723433        4       0.00252673       0.00111540       0.02364800
Pt       2.80721396      -0.00000008      19.95723446        4       0.00065116      -0.01594397       0.00972711
Pt       5.61442779      -0.00000016      19.95723449        4      -0.00226789       0.00161849       0.02364181
Pt       1.40360720       2.43111835      19.95723435        4      -0.01414417       0.00739384       0.00973430
Pt       4.21082080       2.43111834      19.95723443        4       0.01349086       0.00855721       0.00978479
Pt       7.01803483       2.43111844      19.95723431        4      -0.00174648       0.00237191       0.01089560
Pt       2.80721405       4.86223724      19.95723403        4      -0.00025593      -0.00273621       0.02369478
Pt       5.61442805       4.86223734      19.95723421        4       0.00296011       0.00031293       0.01094187
Pt       8.42164144       4.86223725      19.95723437        4      -0.00121414      -0.00269043       0.01088373
Pt       1.40360728       0.81037258      22.29206792        3       0.05146036       0.03163141      -0.15736768
Pt       4.21082126       0.81037248      22.29206794        3      -0.05316580       0.02883723      -0.15732153
Pt       7.01803474       0.81037256      22.29206786        3      -0.00361928       0.01245998      -0.02476810
Pt       2.80721448       3.24149124      22.29206779        3       0.00169417      -0.06045830      -0.15735659
Pt       5.61442762       3.24149125      22.29206790        3      -0.01968017      -0.01315317      -0.06404696
Pt       8.42164155       3.24149130      22.29206809        3       0.02126768      -0.01055457      -0.06406123
Pt       4.21082091       5.67260997      22.29206801        3       0.01261133      -0.00309963      -0.02491182
Pt       7.01803488       5.67261037      22.29206781        3      -0.00158138       0.02370423      -0.06416359
Pt       9.82524819       5.67261065      22.29206808        3      -0.00898398      -0.00936519      -0.02487748
Pt      -0.00000056       1.62074567      24.58417371        2      -0.08191136       0.03570788       0.12799168
Pt       2.80721444       1.62074547      24.58417389        2      -0.00000944       0.00000460      -0.20295775
Pt       5.61442780       1.62074536      24.58417372        2       0.08756094       0.03952155       0.13047841
Pt       1.40360637       4.05186441      24.58417386        2      -0.07808893       0.05617219       0.13055976
Pt       4.21082088       4.05186402      24.58417378        2       0.07198112       0.05318346       0.12816165
Pt       7.01803505       4.05186404      24.58417403        2      -0.00000602       0.00000686       0.13736390
Pt       2.80721282       6.48298342      24.58417366        2       0.00001597      -0.00001152      -0.01224822
Pt       5.61442796       6.48298327      24.58417384        2      -0.00947040      -0.09569352       0.13038443
Pt       8.42164224       6.48298339      24.58417376        2       0.00992324      -0.08889451       0.12799536
Pt      -0.00726489      -0.00349419      26.91493131        1       0.02979881       0.01753628      -0.01562125
Pt       2.80583374       0.01999313      26.90097454        1       0.00158043       0.03069759      -0.01857919
Pt       5.62108298      -0.00454008      26.91492402        1      -0.03008723       0.01701135      -0.01559281
Pt       1.42160893       2.42231477      26.90097414        1       0.02580676      -0.01671969      -0.01858110
Pt       4.19419388       2.41992692      26.90097219        1      -0.02738177      -0.01396338      -0.01857406
Pt       7.01951997       2.41248000      27.01582038        1      -0.00245928       0.02899810       0.02586064
Pt       2.80781690       4.87027479      26.91493427        1       0.00031926      -0.03457912      -0.01562860
Pt       5.59754723       4.87026818      27.01582937        1       0.02630847      -0.01235376       0.02581620
Pt       8.43704158       4.87284212      27.01582527        1      -0.02388000      -0.01662432       0.02583716
O        7.01803875       4.05186119      29.56202252        0       0.00000316      -0.00000744      -0.03906118
C        7.01803867       4.05186159      28.36171513        0      -0.00000699       0.00000611      -0.02768199
