38
Lattice="8.421641763931781 0.0 0.0 4.2108208819658905 7.293355709136913 0.0 0.0 0.0 46.87624170604845" Properties=species:S:1:pos:R:3:tags:I:1:forces:R:3 charge=0 spin=0 energy=-202.8856334650587 free_energy=-202.8856334650587 stress="0.010025993920862675 -1.7407741026431722e-08 -1.1455376230928849e-10 -1.7407741026431722e-08 0.010026018135249615 -1.1873487082425527e-08 -1.1455376230928849e-10 -1.1873487082425527e-08 -0.0002533967199269682" pbc="T T T"
Pt      -0.00000000       0.00000021      19.95723433        4       0.00252686       0.00111554       0.02364822
Pt       2.80721396      -0.00000008      19.95723446        4       0.00065128      -0.01594416       0.00972703
Pt       5.61442779      -0.00000016      19.95723449        4      -0.00226778       0.00161847       0.02364171
Pt       1.40360720       2.43111835      19.95723435        4      -0.01414434       0.00739380       0.00973437
Pt       4.21082080       2.43111834      19.95723443        4       0.01349090       0.00855716       0.00978464
Pt       7.01803483       2.43111844      19.95723431        4      -0.00174630       0.00237185       0.01089545
Pt       2.80721405       4.86223724      19.95723403        4      -0.00025576      -0.00273616       0.02369489
Pt       5.61442805       4.86223734      19.95723421        4       0.00296009       0.00031301       0.01094219
Pt       8.42164144       4.86223725      19.95723437        4      -0.00121406      -0.00269050       0.01088364
Pt       1.40360728       0.81037258      22.29206792        3       0.05145939       0.03163134      -0.15736824
Pt       4.21082126       0.81037248      22.29206794        3      -0.05316607       0.02883748      -0.15732156
Pt       7.01803474       0.81037256      22.29206786        3      -0.00361956       0.01245972      -0.02476783
Pt       2.80721448       3.24149124      22.29206779        3       0.00169402      -0.06045836      -0.15735735
Pt       5.61442762       3.24149125      22.29206790        3      -0.01968054      -0.01315299      -0.06404702
Pt       8.42164155       3.24149130      22.29206809        3       0.02126763      -0.01055459      -0.06406120
Pt       4.21082091       5.67260997      22.29206801        3       0.01261107      -0.00309954      -0.02491049
Pt       7.01803488       5.67261037      22.29206781        3      -0.00158186       0.02370460      -0.06416404
Pt       9.82524819       5.67261065      22.29206808        3      -0.00898398      -0.00936547      -0.02487727
Pt      -0.00000056       1.62074567      24.58417371        2      -0.08191144       0.03570731       0.12799177
Pt       2.80721444       1.62074547      24.58417389        2      -0.00000927       0.00000444      -0.20295271
Pt       5.61442780       1.62074536      24.58417372        2       0.08756104       0.03952090       0.13047905
Pt       1.40360637       4.05186441      24.58417386        2      -0.07808825       0.05617226       0.13055965
Pt       4.21082088       4.05186402      24.58417378        2       0.07198092       0.05318388       0.12816186
Pt       7.01803505       4.05186404      24.58417403        2      -0.00000582       0.00000662       0.13736176
Pt       2.80721282       6.48298342      24.58417366        2       0.00001624      -0.00001154      -0.01224917
Pt       5.61442796       6.48298327      24.58417384        2      -0.00947042      -0.09569356       0.13038373
Pt       8.42164224       6.48298339      24.58417376        2       0.00992406      -0.08889411       0.12799662
Pt      -0.00726558      -0.00349473      26.91493186        1       0.02980076       0.01753906      -0.01562101
Pt       2.80583370       0.01999199      26.90097514        1       0.00158199       0.03070885      -0.01858133
Pt       5.62108386      -0.00454051      26.91492463        1      -0.03009243       0.01701391      -0.01559400
Pt       1.42160798       2.42231542      26.90097477        1       0.02581576      -0.01672425      -0.01858301
Pt       4.19419484       2.41992750      26.90097272        1      -0.02739005      -0.01396960      -0.01857556
Pt       7.01951997       2.41248083      27.01582049        1      -0.00245941       0.02898735       0.02585815
Pt       2.80781688       4.87027571      26.91493467        1       0.00031945      -0.03458312      -0.01562899
Pt       5.59754799       4.87026787      27.01582959        1       0.02629893      -0.01234944       0.02581421
Pt       8.43704070       4.87284165      27.01582542        1      -0.02386906      -0.01661840       0.02583501
O        7.01803872       4.05186119      29.56202335        0       0.00000324      -0.00000731      -0.03905804
C        7.01803863       4.05186161      28.36171546        0      -0.00000686       0.00000551      -0.02767558
