38
Lattice="8.421641763931781 0.0 0.0 4.2108208819658905 7.293355709136913 0.0 0.0 0.0 46.87624170604845" Properties=species:S:1:pos:R:3:tags:I:1:forces:R:3 charge=0 spin=0 energy=-202.8864936792921 free_energy=-202.8864936792921 stress="0.009958202950656414 -2.0931462785256372e-08 1.670470706205407e-10 -2.0931462785256372e-08 0.009958220645785332 -1.6177384765114766e-08 1.670470706205407e-10 -1.6177384765114766e-08 -0.0003850744978990406" pbc="T T T"
Pt      -0.00000000       0.00000021      19.95723433        4       0.00273270       0.00118291       0.02365435
Pt       2.80721396      -0.00000008      19.95723446        4       0.00065002      -0.01597213       0.00951600
Pt       5.61442779      -0.00000016      19.95723449        4      -0.00243048       0.00176146       0.02364875
Pt       1.40360720       2.43111835      19.95723435        4      -0.01416740       0.00740793       0.00952406
Pt       4.21082080       2.43111834      19.95723443        4       0.01351542       0.00857118       0.00957497
Pt       7.01803483       2.43111844      19.95723431        4      -0.00177551       0.00278744       0.01090919
Pt       2.80721405       4.86223724      19.95723403        4      -0.00029902      -0.00294681       0.02369996
Pt       5.61442805       4.86223734      19.95723421        4       0.00333491       0.00013094       0.01095262
Pt       8.42164144       4.86223725      19.95723437        4      -0.00156026      -0.00292376       0.01089454
Pt       1.40360728       0.81037258      22.29206792        3       0.05184313       0.03213175      -0.15795009
Pt       4.21082126       0.81037248      22.29206794        3      -0.05379436       0.02891855      -0.15789768
Pt       7.01803474       0.81037256      22.29206786        3      -0.00373738       0.01227531      -0.02539139
Pt       2.80721448       3.24149124      22.29206779        3       0.00193810      -0.06104050      -0.15794237
Pt       5.61442762       3.24149125      22.29206790        3      -0.01995554      -0.01328141      -0.06214032
Pt       8.42164155       3.24149130      22.29206809        3       0.02151810      -0.01072875      -0.06215651
Pt       4.21082091       5.67260997      22.29206801        3       0.01251081      -0.00290448      -0.02554416
Pt       7.01803488       5.67261037      22.29206781        3      -0.00155733       0.02400632      -0.06226221
Pt       9.82524819       5.67261065      22.29206808        3      -0.00876576      -0.00937488      -0.02550652
Pt      -0.00000056       1.62074567      24.58417371        2      -0.08973795       0.04043481       0.11567368
Pt       2.80721444       1.62074547      24.58417389        2      -0.00000433       0.00001215      -0.24438800
Pt       5.61442780       1.62074536      24.58417372        2       0.09446301       0.04357472       0.11799594
Pt       1.40360637       4.05186441      24.58417386        2      -0.08504584       0.06012918       0.11807348
Pt       4.21082088       4.05186402      24.58417378        2       0.07998079       0.05759350       0.11584668
Pt       7.01803505       4.05186404      24.58417403        2      -0.00000444       0.00000136       0.13881190
Pt       2.80721282       6.48298342      24.58417366        2       0.00000974      -0.00001384      -0.01335627
Pt       5.61442796       6.48298327      24.58417384        2      -0.00941394      -0.10370343       0.11787087
Pt       8.42164224       6.48298339      24.58417376        2       0.00975182      -0.09803264       0.11568153
Pt      -0.00232748      -0.00010621      26.90916643        1      -0.00384777      -0.00303551      -0.00074357
Pt       2.80626054       0.02371129      26.89509250        1       0.00060464      -0.00788877       0.01007270
Pt       5.61567994      -0.00196057      26.90916669        1       0.00455829      -0.00181763      -0.00074224
Pt       1.42461659       2.42008785      26.89509796        1      -0.00712796       0.00342127       0.01005258
Pt       4.19076002       2.41843856      26.89510156        1       0.00653676       0.00446257       0.01004353
Pt       7.01849816       2.41339183      27.01825844        1       0.00056196       0.00281969      -0.00014007
Pt       2.80828839       4.86430110      26.90917356        1      -0.00071668       0.00485843      -0.00076639
Pt       5.59884552       4.87069673      27.01825831        1       0.00215981      -0.00189027      -0.00013789
Pt       8.43676218       4.87150234      27.01825728        1      -0.00272457      -0.00092784      -0.00013410
O        7.01803904       4.05186380      29.55867662        0      -0.00000141       0.00000197      -0.00922734
C        7.01803758       4.05186415      28.35819674        0      -0.00000170      -0.00000097       0.00392968
