38
Lattice="8.421641763931781 0.0 0.0 4.2108208819658905 7.293355709136913 0.0 0.0 0.0 46.87624170604845" Properties=species:S:1:pos:R:3:tags:I:1:forces:R:3 charge=0 spin=0 energy=-202.88649749398937 free_energy=-202.88649749398937 stress="0.009958202950656414 -2.0732793259981008e-08 2.1664356975037435e-09 -2.0732793259981008e-08 0.009958215989172459 -1.6559825510853443e-08 2.1664356975037435e-09 -1.6559825510853443e-08 -0.0003850742941722274" pbc="T T T"
Pt      -0.00000000       0.00000021      19.95723433        4       0.00273269       0.00118294       0.02365426
Pt       2.80721396      -0.00000008      19.95723446        4       0.00065015      -0.01597218       0.00951598
Pt       5.61442779      -0.00000016      19.95723449        4      -0.00243051       0.00176128       0.02364866
Pt       1.40360720       2.43111835      19.95723435        4      -0.01416736       0.00740807       0.00952413
Pt       4.21082080       2.43111834      19.95723443        4       0.01351553       0.00857128       0.00957502
Pt       7.01803483       2.43111844      19.95723431        4      -0.00177560       0.00278745       0.01090909
Pt       2.80721405       4.86223724      19.95723403        4      -0.00029898      -0.00294675       0.02370006
Pt       5.61442805       4.86223734      19.95723421        4       0.00333492       0.00013093       0.01095262
Pt       8.42164144       4.86223725      19.95723437        4      -0.00156033      -0.00292366       0.01089450
Pt       1.40360728       0.81037258      22.29206792        3       0.05184367       0.03213167      -0.15794978
Pt       4.21082126       0.81037248      22.29206794        3      -0.05379451       0.02891862      -0.15789805
Pt       7.01803474       0.81037256      22.29206786        3      -0.00373765       0.01227527      -0.02539125
Pt       2.80721448       3.24149124      22.29206779        3       0.00193845      -0.06104039      -0.15794197
Pt       5.61442762       3.24149125      22.29206790        3      -0.01995557      -0.01328141      -0.06214075
Pt       8.42164155       3.24149130      22.29206809        3       0.02151841      -0.01072888      -0.06215715
Pt       4.21082091       5.67260997      22.29206801        3       0.01251079      -0.00290473      -0.02554439
Pt       7.01803488       5.67261037      22.29206781        3      -0.00155728       0.02400604      -0.06226204
Pt       9.82524819       5.67261065      22.29206808        3      -0.00876555      -0.00937472      -0.02550632
Pt      -0.00000056       1.62074567      24.58417371        2      -0.08973688       0.04043427       0.11567155
Pt       2.80721444       1.62074547      24.58417389        2      -0.00000475       0.00001174      -0.24438855
Pt       5.61442780       1.62074536      24.58417372        2       0.09446198       0.04357414       0.11799382
Pt       1.40360637       4.05186441      24.58417386        2      -0.08504614       0.06012935       0.11807370
Pt       4.21082088       4.05186402      24.58417378        2       0.07997961       0.05759283       0.11584505
Pt       7.01803505       4.05186404      24.58417403        2      -0.00000369       0.00000170       0.13880938
Pt       2.80721282       6.48298342      24.58417366        2       0.00000959      -0.00001411      -0.01335731
Pt       5.61442796       6.48298327      24.58417384        2      -0.00941412      -0.10370182       0.11786973
Pt       8.42164224       6.48298339      24.58417376        2       0.00975182      -0.09803283       0.11568122
Pt      -0.00232763      -0.00010625      26.90916663        1      -0.00384206      -0.00303573      -0.00074351
Pt       2.80626069       0.02371140      26.89509267        1       0.00060125      -0.00788985       0.01007294
Pt       5.61568025      -0.00196064      26.90916677        1       0.00455732      -0.00181838      -0.00074122
Pt       1.42461660       2.42008778      26.89509788        1      -0.00712800       0.00342144       0.01005292
Pt       4.19075965       2.41843855      26.89510232        1       0.00653696       0.00446417       0.01004306
Pt       7.01849809       2.41339194      27.01825783        1       0.00056131       0.00282546      -0.00012933
Pt       2.80828848       4.86430110      26.90917351        1      -0.00071675       0.00485758      -0.00076677
Pt       5.59884549       4.87069678      27.01825754        1       0.00216289      -0.00189242      -0.00012789
Pt       8.43676222       4.87150238      27.01825661        1      -0.00272652      -0.00092856      -0.00013199
O        7.01803891       4.05186360      29.55867554        0      -0.00000221       0.00000069      -0.00923486
C        7.01803758       4.05186427      28.35819636        0      -0.00000255      -0.00000055       0.00392523
