38
Lattice="8.421641763931781 0.0 0.0 4.2108208819658905 7.293355709136913 0.0 0.0 0.0 46.87624170604845" Properties=species:S:1:pos:R:3:tags:I:1:forces:R:3 charge=0 spin=0 energy=-202.8864936792921 free_energy=-202.8864936792921 stress="0.009958207607269287 -2.0149263590951705e-08 2.6584439094534673e-09 -2.0149263590951705e-08 0.009958220645785332 -1.6833855198683523e-08 2.6584439094534673e-09 -1.6833855198683523e-08 -0.00038507336284965277" pbc="T T T"
Pt      -0.00000000       0.00000021      19.95723433        4       0.00273259       0.00118275       0.02365432
Pt       2.80721396      -0.00000008      19.95723446        4       0.00065011      -0.01597219       0.00951588
Pt       5.61442779      -0.00000016      19.95723449        4      -0.00243050       0.00176130       0.02364851
Pt       1.40360720       2.43111835      19.95723435        4      -0.01416723       0.00740807       0.00952398
Pt       4.21082080       2.43111834      19.95723443        4       0.01351540       0.00857133       0.00957495
Pt       7.01803483       2.43111844      19.95723431        4      -0.00177547       0.00278734       0.01090905
Pt       2.80721405       4.86223724      19.95723403        4      -0.00029898      -0.00294659       0.02369987
Pt       5.61442805       4.86223734      19.95723421        4       0.00333474       0.00013103       0.01095260
Pt       8.42164144       4.86223725      19.95723437        4      -0.00156031      -0.00292375       0.01089450
Pt       1.40360728       0.81037258      22.29206792        3       0.05184336       0.03213154      -0.15794981
Pt       4.21082126       0.81037248      22.29206794        3      -0.05379455       0.02891837      -0.15789780
Pt       7.01803474       0.81037256      22.29206786        3      -0.00373753       0.01227539      -0.02539122
Pt       2.80721448       3.24149124      22.29206779        3       0.00193827      -0.06104071      -0.15794256
Pt       5.61442762       3.24149125      22.29206790        3      -0.01995559      -0.01328151      -0.06214081
Pt       8.42164155       3.24149130      22.29206809        3       0.02151791      -0.01072868      -0.06215680
Pt       4.21082091       5.67260997      22.29206801        3       0.01251059      -0.00290439      -0.02554396
Pt       7.01803488       5.67261037      22.29206781        3      -0.00155743       0.02400589      -0.06226201
Pt       9.82524819       5.67261065      22.29206808        3      -0.00876583      -0.00937467      -0.02550643
Pt      -0.00000056       1.62074567      24.58417371        2      -0.08973652       0.04043425       0.11567165
Pt       2.80721444       1.62074547      24.58417389        2      -0.00000419       0.00001163      -0.24438870
Pt       5.61442780       1.62074536      24.58417372        2       0.09446183       0.04357461       0.11799423
Pt       1.40360637       4.05186441      24.58417386        2      -0.08504605       0.06012921       0.11807302
Pt       4.21082088       4.05186402      24.58417378        2       0.07998067       0.05759322       0.11584686
Pt       7.01803505       4.05186404      24.58417403        2      -0.00000447       0.00000215       0.13881190
Pt       2.80721282       6.48298342      24.58417366        2       0.00000982      -0.00001455      -0.01335858
Pt       5.61442796       6.48298327      24.58417384        2      -0.00941375      -0.10370305       0.11787092
Pt       8.42164224       6.48298339      24.58417376        2       0.00975181      -0.09803262       0.11568183
Pt      -0.00232779      -0.00010651      26.90916673        1      -0.00384043      -0.00303468      -0.00074205
Pt       2.80626059       0.02371143      26.89509226        1       0.00060381      -0.00789030       0.01007228
Pt       5.61568053      -0.00196074      26.90916680        1       0.00455227      -0.00181867      -0.00074111
Pt       1.42461659       2.42008763      26.89509814        1      -0.00712810       0.00342182       0.01005322
Pt       4.19075978       2.41843848      26.89510164        1       0.00653869       0.00446433       0.01004293
Pt       7.01849820       2.41339144      27.01825777        1       0.00056037       0.00283131      -0.00012907
Pt       2.80828858       4.86430140      26.90917363        1      -0.00071631       0.00485651      -0.00076560
Pt       5.59884483       4.87069704      27.01825814        1       0.00216725      -0.00189515      -0.00013587
Pt       8.43676237       4.87150252      27.01825726        1      -0.00273275      -0.00092998      -0.00013144
O        7.01803918       4.05186376      29.55867568        0      -0.00000147      -0.00000027      -0.00923256
C        7.01803756       4.05186415      28.35819646        0      -0.00000222      -0.00000036       0.00392372
