38
Lattice="8.421641763931781 0.0 0.0 4.2108208819658905 7.293355709136913 0.0 0.0 0.0 46.87624170604845" Properties=species:S:1:pos:R:3:tags:I:1:forces:R:3 charge=0 spin=0 energy=-202.88603114724864 free_energy=-202.88603114724864 stress="0.009942462667822838 -2.350521199900868e-08 1.626243806285288e-09 -2.350521199900868e-08 0.009942475706338882 -1.8049822969601337e-08 1.626243806285288e-09 -1.8049822969601337e-08 -0.0004228319739922881" pbc="T T T"
Pt      -0.00000000       0.00000021      19.95723433        4       0.00242263       0.00100204       0.02362782
Pt       2.80721396      -0.00000008      19.95723446        4       0.00068953      -0.01587865       0.00963661
Pt       5.61442779      -0.00000016      19.95723449        4      -0.00211841       0.00158392       0.02362171
Pt       1.40360720       2.43111835      19.95723435        4      -0.01410658       0.00732735       0.00964382
Pt       4.21082080       2.43111834      19.95723443        4       0.01341501       0.00855822       0.00969544
Pt       7.01803483       2.43111844      19.95723431        4      -0.00176389       0.00275154       0.01081231
Pt       2.80721405       4.86223724      19.95723403        4      -0.00030108      -0.00258812       0.02367269
Pt       5.61442805       4.86223734      19.95723421        4       0.00329867       0.00013886       0.01085633
Pt       8.42164144       4.86223725      19.95723437        4      -0.00153518      -0.00289582       0.01079736
Pt       1.40360728       0.81037258      22.29206792        3       0.05157011       0.03194913      -0.15864116
Pt       4.21082126       0.81037248      22.29206794        3      -0.05349689       0.02877235      -0.15859155
Pt       7.01803474       0.81037256      22.29206786        3      -0.00362752       0.01224515      -0.02483536
Pt       2.80721448       3.24149124      22.29206779        3       0.00191513      -0.06071134      -0.15863359
Pt       5.61442762       3.24149125      22.29206790        3      -0.01993248      -0.01328851      -0.06293538
Pt       8.42164155       3.24149130      22.29206809        3       0.02151107      -0.01070496      -0.06294913
Pt       4.21082091       5.67260997      22.29206801        3       0.01243014      -0.00298545      -0.02499034
Pt       7.01803488       5.67261037      22.29206781        3      -0.00157362       0.02399017      -0.06305824
Pt       9.82524819       5.67261065      22.29206808        3      -0.00879556      -0.00926506      -0.02495232
Pt      -0.00000056       1.62074567      24.58417371        2      -0.08557212       0.03871550       0.11624402
Pt       2.80721444       1.62074547      24.58417389        2      -0.00000988       0.00000601      -0.21476580
Pt       5.61442780       1.62074536      24.58417372        2       0.09023926       0.04206361       0.11794072
Pt       1.40360637       4.05186441      24.58417386        2      -0.08163109       0.05721901       0.11800862
Pt       4.21082088       4.05186402      24.58417378        2       0.07641169       0.05484150       0.11641325
Pt       7.01803505       4.05186404      24.58417403        2      -0.00000324       0.00000012       0.13543144
Pt       2.80721282       6.48298342      24.58417366        2       0.00001175      -0.00000549      -0.01609134
Pt       5.61442796       6.48298327      24.58417384        2      -0.00860668      -0.09928001       0.11781826
Pt       8.42164224       6.48298339      24.58417376        2       0.00915524      -0.09356108       0.11624653
Pt      -0.00356900      -0.00121319      26.90937886        1       0.00780029       0.00528594      -0.00032029
Pt       2.80620912       0.01810170      26.89737939        1       0.00095618       0.04053031      -0.00538510
Pt       5.61725992      -0.00248117      26.90937655        1      -0.00847076       0.00410798      -0.00031020
Pt       1.41978384       2.42293819      26.89738074        1       0.03462455      -0.02110138      -0.00539348
Pt       4.19564222       2.42119532      26.89738098        1      -0.03556115      -0.01941480      -0.00539316
Pt       7.01857848       2.41301812      27.01779478        1       0.00088446      -0.01630347      -0.01612111
Pt       2.80794606       4.86593359      26.90937592        1       0.00069116      -0.00939906      -0.00031558
Pt       5.59848442       4.87081553      27.01779269        1      -0.01458408       0.00737850      -0.01610794
Pt       8.43704626       4.87175983      27.01779326        1       0.01366805       0.00891348      -0.01610830
O        7.01803726       4.05186238      29.55135499        0      -0.00000015       0.00000664       0.03784888
C        7.01803757       4.05186401      28.35093662        0      -0.00000448      -0.00000412       0.02758360
