38
Lattice="8.421641763931781 0.0 0.0 4.2108208819658905 7.293355709136913 0.0 0.0 0.0 46.87624170604845" Properties=species:S:1:pos:R:3:tags:I:1:forces:R:3 charge=0 spin=0 energy=-202.8860282862257 free_energy=-202.8860282862257 stress="0.009942461736500263 -2.2671057919865234e-08 -1.2991760445224543e-10 -2.2671057919865234e-08 0.009942476637661457 -1.5702635636216655e-08 -1.2991760445224543e-10 -1.5702635636216655e-08 -0.0004228292382322252" pbc="T T T"
Pt      -0.00000000       0.00000021      19.95723433        4       0.00242265       0.00100209       0.02362782
Pt       2.80721396      -0.00000008      19.95723446        4       0.00068956      -0.01587853       0.00963681
Pt       5.61442779      -0.00000016      19.95723449        4      -0.00211850       0.00158386       0.02362163
Pt       1.40360720       2.43111835      19.95723435        4      -0.01410650       0.00732719       0.00964380
Pt       4.21082080       2.43111834      19.95723443        4       0.01341491       0.00855829       0.00969539
Pt       7.01803483       2.43111844      19.95723431        4      -0.00176388       0.00275157       0.01081231
Pt       2.80721405       4.86223724      19.95723403        4      -0.00030098      -0.00258800       0.02367267
Pt       5.61442805       4.86223734      19.95723421        4       0.00329859       0.00013863       0.01085648
Pt       8.42164144       4.86223725      19.95723437        4      -0.00153525      -0.00289586       0.01079751
Pt       1.40360728       0.81037258      22.29206792        3       0.05156993       0.03194920      -0.15864131
Pt       4.21082126       0.81037248      22.29206794        3      -0.05349699       0.02877237      -0.15859139
Pt       7.01803474       0.81037256      22.29206786        3      -0.00362735       0.01224521      -0.02483534
Pt       2.80721448       3.24149124      22.29206779        3       0.00191511      -0.06071122      -0.15863371
Pt       5.61442762       3.24149125      22.29206790        3      -0.01993232      -0.01328842      -0.06293540
Pt       8.42164155       3.24149130      22.29206809        3       0.02151063      -0.01070455      -0.06294872
Pt       4.21082091       5.67260997      22.29206801        3       0.01243041      -0.00298553      -0.02499043
Pt       7.01803488       5.67261037      22.29206781        3      -0.00157328       0.02399020      -0.06305756
Pt       9.82524819       5.67261065      22.29206808        3      -0.00879559      -0.00926521      -0.02495249
Pt      -0.00000056       1.62074567      24.58417371        2      -0.08557233       0.03871555       0.11624444
Pt       2.80721444       1.62074547      24.58417389        2      -0.00000953       0.00000591      -0.21476610
Pt       5.61442780       1.62074536      24.58417372        2       0.09023935       0.04206387       0.11794084
Pt       1.40360637       4.05186441      24.58417386        2      -0.08163086       0.05721911       0.11800916
Pt       4.21082088       4.05186402      24.58417378        2       0.07641265       0.05484213       0.11641516
Pt       7.01803505       4.05186404      24.58417403        2      -0.00000421       0.00000066       0.13543288
Pt       2.80721282       6.48298342      24.58417366        2       0.00001159      -0.00000505      -0.01609098
Pt       5.61442796       6.48298327      24.58417384        2      -0.00860679      -0.09928139       0.11782024
Pt       8.42164224       6.48298339      24.58417376        2       0.00915479      -0.09356132       0.11624562
Pt      -0.00356897      -0.00121327      26.90937887        1       0.00779945       0.00528574      -0.00032048
Pt       2.80620916       0.01810180      26.89737916        1       0.00095392       0.04052975      -0.00538442
Pt       5.61725966      -0.00248114      26.90937660        1      -0.00846681       0.00410886      -0.00031035
Pt       1.41978395       2.42293812      26.89738023        1       0.03462290      -0.02110024      -0.00539356
Pt       4.19564219       2.42119530      26.89738125        1      -0.03556098      -0.01941366      -0.00539311
Pt       7.01857847       2.41301826      27.01779527        1       0.00088485      -0.01630458      -0.01612217
Pt       2.80794608       4.86593366      26.90937602        1       0.00069260      -0.00940050      -0.00031580
Pt       5.59848458       4.87081561      27.01779340        1      -0.01458715       0.00738006      -0.01611831
Pt       8.43704602       4.87175977      27.01779409        1       0.01366860       0.00891223      -0.01610894
O        7.01803730       4.05186241      29.55135507        0       0.00000176       0.00000553       0.03785319
C        7.01803756       4.05186395      28.35093714        0      -0.00000490      -0.00000396       0.02758458
