38
Lattice="8.421641763931781 0.0 0.0 4.2108208819658905 7.293355709136913 0.0 0.0 0.0 46.87624170604845" Properties=species:S:1:pos:R:3:tags:I:1:forces:R:3 charge=0 spin=0 energy=-202.8856334650587 free_energy=-202.8856334650587 stress="0.010025995783507824 -1.7385072936804136e-08 -2.79264333880036e-10 -1.7385072936804136e-08 0.010026011615991592 -1.2088531953224901e-08 -2.79264333880036e-10 -1.2088531953224901e-08 -0.0002534039958845824" pbc="T T T"
Pt      -0.00000000       0.00000021      19.95723433        4       0.00252680       0.00111536       0.02364807
Pt       2.80721396      -0.00000008      19.95723446        4       0.00065122      -0.01594410       0.00972699
Pt       5.61442779      -0.00000016      19.95723449        4      -0.00226792       0.00161847       0.02364179
Pt       1.40360720       2.43111835      19.95723435        4      -0.01414423       0.00739389       0.00973426
Pt       4.21082080       2.43111834      19.95723443        4       0.01349088       0.00855722       0.00978471
Pt       7.01803483       2.43111844      19.95723431        4      -0.00174653       0.00237187       0.01089554
Pt       2.80721405       4.86223724      19.95723403        4      -0.00025572      -0.00273624       0.02369478
Pt       5.61442805       4.86223734      19.95723421        4       0.00296005       0.00031298       0.01094202
Pt       8.42164144       4.86223725      19.95723437        4      -0.00121415      -0.00269045       0.01088364
Pt       1.40360728       0.81037258      22.29206792        3       0.05145958       0.03163150      -0.15736838
Pt       4.21082126       0.81037248      22.29206794        3      -0.05316612       0.02883736      -0.15732186
Pt       7.01803474       0.81037256      22.29206786        3      -0.00361956       0.01246000      -0.02476784
Pt       2.80721448       3.24149124      22.29206779        3       0.00169401      -0.06045838      -0.15735699
Pt       5.61442762       3.24149125      22.29206790        3      -0.01968022      -0.01315324      -0.06404655
Pt       8.42164155       3.24149130      22.29206809        3       0.02126753      -0.01055488      -0.06406045
Pt       4.21082091       5.67260997      22.29206801        3       0.01261117      -0.00309956      -0.02491142
Pt       7.01803488       5.67261037      22.29206781        3      -0.00158133       0.02370414      -0.06416443
Pt       9.82524819       5.67261065      22.29206808        3      -0.00898407      -0.00936532      -0.02487728
Pt      -0.00000056       1.62074567      24.58417371        2      -0.08191247       0.03570991       0.12799142
Pt       2.80721444       1.62074547      24.58417389        2      -0.00000860       0.00000448      -0.20295587
Pt       5.61442780       1.62074536      24.58417372        2       0.08756194       0.03952242       0.13048021
Pt       1.40360637       4.05186441      24.58417386        2      -0.07808895       0.05617202       0.13055988
Pt       4.21082088       4.05186402      24.58417378        2       0.07198233       0.05318405       0.12816367
Pt       7.01803505       4.05186404      24.58417403        2      -0.00000649       0.00000634       0.13736646
Pt       2.80721282       6.48298342      24.58417366        2       0.00001537      -0.00001253      -0.01225108
Pt       5.61442796       6.48298327      24.58417384        2      -0.00946923      -0.09569560       0.13038416
Pt       8.42164224       6.48298339      24.58417376        2       0.00992367      -0.08889427       0.12799580
Pt      -0.00726489      -0.00349416      26.91493121        1       0.02980075       0.01753691      -0.01561444
Pt       2.80583370       0.01999273      26.90097453        1       0.00158203       0.03070045      -0.01858004
Pt       5.62108309      -0.00454016      26.91492407        1      -0.03009252       0.01701240      -0.01559266
Pt       1.42160873       2.42231495      26.90097410        1       0.02580844      -0.01671965      -0.01858159
Pt       4.19419413       2.41992707      26.90097220        1      -0.02738398      -0.01396589      -0.01857471
Pt       7.01951992       2.41248005      27.01582057        1      -0.00245793       0.02899462       0.02585112
Pt       2.80781687       4.87027480      26.91493397        1       0.00031962      -0.03458045      -0.01562848
Pt       5.59754720       4.87026816      27.01583018        1       0.02630493      -0.01235172       0.02580596
Pt       8.43704169       4.87284214      27.01582570        1      -0.02387803      -0.01662342       0.02583522
O        7.01803865       4.05186122      29.56202314        0       0.00000495      -0.00000637      -0.03905298
C        7.01803861       4.05186164      28.36171598        0      -0.00000714       0.00000542      -0.02767847
