38
Lattice="8.421641763931781 0.0 0.0 4.2108208819658905 7.293355709136913 0.0 0.0 0.0 46.87624170604845" Properties=species:S:1:pos:R:3:tags:I:1:forces:R:3 charge=0 spin=0 energy=-202.8860282862257 free_energy=-202.8860282862257 stress="0.009942460805177689 -2.2552764988859053e-08 1.2226050172259306e-09 -2.2552764988859053e-08 0.00994246918708086 -1.754043310597808e-08 1.2226050172259306e-09 -1.754043310597808e-08 -0.00042283142101950943" pbc="T T T"
Pt      -0.00000000       0.00000021      19.95723433        4       0.00242253       0.00100205       0.02362765
Pt       2.80721396      -0.00000008      19.95723446        4       0.00068957      -0.01587868       0.00963666
Pt       5.61442779      -0.00000016      19.95723449        4      -0.00211856       0.00158384       0.02362154
Pt       1.40360720       2.43111835      19.95723435        4      -0.01410657       0.00732739       0.00964389
Pt       4.21082080       2.43111834      19.95723443        4       0.01341505       0.00855832       0.00969527
Pt       7.01803483       2.43111844      19.95723431        4      -0.00176388       0.00275137       0.01081227
Pt       2.80721405       4.86223724      19.95723403        4      -0.00030107      -0.00258802       0.02367252
Pt       5.61442805       4.86223734      19.95723421        4       0.00329849       0.00013857       0.01085639
Pt       8.42164144       4.86223725      19.95723437        4      -0.00153530      -0.00289581       0.01079743
Pt       1.40360728       0.81037258      22.29206792        3       0.05157018       0.03194925      -0.15864101
Pt       4.21082126       0.81037248      22.29206794        3      -0.05349706       0.02877242      -0.15859115
Pt       7.01803474       0.81037256      22.29206786        3      -0.00362734       0.01224520      -0.02483531
Pt       2.80721448       3.24149124      22.29206779        3       0.00191512      -0.06071131      -0.15863332
Pt       5.61442762       3.24149125      22.29206790        3      -0.01993262      -0.01328835      -0.06293605
Pt       8.42164155       3.24149130      22.29206809        3       0.02151104      -0.01070480      -0.06294963
Pt       4.21082091       5.67260997      22.29206801        3       0.01243032      -0.00298549      -0.02499044
Pt       7.01803488       5.67261037      22.29206781        3      -0.00157326       0.02399026      -0.06305780
Pt       9.82524819       5.67261065      22.29206808        3      -0.00879556      -0.00926506      -0.02495247
Pt      -0.00000056       1.62074567      24.58417371        2      -0.08557110       0.03871469       0.11624247
Pt       2.80721444       1.62074547      24.58417389        2      -0.00000953       0.00000564      -0.21476506
Pt       5.61442780       1.62074536      24.58417372        2       0.09023795       0.04206294       0.11793874
Pt       1.40360637       4.05186441      24.58417386        2      -0.08162946       0.05721815       0.11800599
Pt       4.21082088       4.05186402      24.58417378        2       0.07641147       0.05484150       0.11641318
Pt       7.01803505       4.05186404      24.58417403        2      -0.00000382       0.00000066       0.13542955
Pt       2.80721282       6.48298342      24.58417366        2       0.00001177      -0.00000550      -0.01609120
Pt       5.61442796       6.48298327      24.58417384        2      -0.00860680      -0.09928001       0.11781808
Pt       8.42164224       6.48298339      24.58417376        2       0.00915477      -0.09355977       0.11624338
Pt      -0.00356887      -0.00121313      26.90937874        1       0.00780020       0.00528474      -0.00032052
Pt       2.80620912       0.01810150      26.89737938        1       0.00095488       0.04053201      -0.00538504
Pt       5.61725938      -0.00248116      26.90937672        1      -0.00846664       0.00410903      -0.00031033
Pt       1.41978373       2.42293826      26.89738080        1       0.03462635      -0.02110338      -0.00539369
Pt       4.19564236       2.42119545      26.89738107        1      -0.03556427      -0.01941557      -0.00539369
Pt       7.01857848       2.41301809      27.01779429        1       0.00088507      -0.01629540      -0.01610995
Pt       2.80794596       4.86593354      26.90937593        1       0.00069325      -0.00939869      -0.00031520
Pt       5.59848435       4.87081552      27.01779212        1      -0.01457933       0.00737708      -0.01610577
Pt       8.43704661       4.87175992      27.01779245        1       0.01365613       0.00890850      -0.01609526
O        7.01803718       4.05186234      29.55135458        0       0.00000219       0.00000567       0.03783975
C        7.01803759       4.05186399      28.35093766        0      -0.00000440      -0.00000353       0.02757814
