38
Lattice="8.421641763931781 0.0 0.0 4.2108208819658905 7.293355709136913 0.0 0.0 0.0 46.87624170604845" Properties=species:S:1:pos:R:3:tags:I:1:forces:R:3 charge=0 spin=0 energy=-202.8864936792921 free_energy=-202.8864936792921 stress="0.00995820015668869 -2.237912077873716e-08 1.010779793197969e-09 -2.237912077873716e-08 0.009958215989172459 -1.5093235106178327e-08 1.010779793197969e-09 -1.5093235106178327e-08 -0.00038507612771354616" pbc="T T T"
Pt      -0.00000000       0.00000021      19.95723433        4       0.00273262       0.00118292       0.02365415
Pt       2.80721396      -0.00000008      19.95723446        4       0.00065014      -0.01597224       0.00951592
Pt       5.61442779      -0.00000016      19.95723449        4      -0.00243052       0.00176126       0.02364841
Pt       1.40360720       2.43111835      19.95723435        4      -0.01416722       0.00740794       0.00952404
Pt       4.21082080       2.43111834      19.95723443        4       0.01351539       0.00857135       0.00957487
Pt       7.01803483       2.43111844      19.95723431        4      -0.00177549       0.00278753       0.01090902
Pt       2.80721405       4.86223724      19.95723403        4      -0.00029904      -0.00294677       0.02369985
Pt       5.61442805       4.86223734      19.95723421        4       0.00333478       0.00013085       0.01095254
Pt       8.42164144       4.86223725      19.95723437        4      -0.00156045      -0.00292367       0.01089477
Pt       1.40360728       0.81037258      22.29206792        3       0.05184339       0.03213175      -0.15795018
Pt       4.21082126       0.81037248      22.29206794        3      -0.05379470       0.02891862      -0.15789805
Pt       7.01803474       0.81037256      22.29206786        3      -0.00373728       0.01227535      -0.02539135
Pt       2.80721448       3.24149124      22.29206779        3       0.00193811      -0.06104034      -0.15794279
Pt       5.61442762       3.24149125      22.29206790        3      -0.01995541      -0.01328149      -0.06214070
Pt       8.42164155       3.24149130      22.29206809        3       0.02151807      -0.01072870      -0.06215655
Pt       4.21082091       5.67260997      22.29206801        3       0.01251083      -0.00290465      -0.02554405
Pt       7.01803488       5.67261037      22.29206781        3      -0.00155735       0.02400607      -0.06226173
Pt       9.82524819       5.67261065      22.29206808        3      -0.00876572      -0.00937475      -0.02550634
Pt      -0.00000056       1.62074567      24.58417371        2      -0.08973718       0.04043396       0.11567132
Pt       2.80721444       1.62074547      24.58417389        2      -0.00000413       0.00001149      -0.24438624
Pt       5.61442780       1.62074536      24.58417372        2       0.09446201       0.04357412       0.11799418
Pt       1.40360637       4.05186441      24.58417386        2      -0.08504585       0.06012932       0.11807301
Pt       4.21082088       4.05186402      24.58417378        2       0.07998055       0.05759374       0.11584646
Pt       7.01803505       4.05186404      24.58417403        2      -0.00000453       0.00000231       0.13881028
Pt       2.80721282       6.48298342      24.58417366        2       0.00000987      -0.00001420      -0.01335620
Pt       5.61442796       6.48298327      24.58417384        2      -0.00941392      -0.10370317       0.11787064
Pt       8.42164224       6.48298339      24.58417376        2       0.00975194      -0.09803258       0.11568121
Pt      -0.00232725      -0.00010596      26.90916686        1      -0.00384723      -0.00303709      -0.00074315
Pt       2.80626063       0.02371062      26.89509254        1       0.00060367      -0.00788517       0.01007277
Pt       5.61567965      -0.00196030      26.90916678        1       0.00455885      -0.00181833      -0.00074194
Pt       1.42461605       2.42008818      26.89509817        1      -0.00712304       0.00341890       0.01005288
Pt       4.19076045       2.41843888      26.89510220        1       0.00653302       0.00446065       0.01004300
Pt       7.01849819       2.41339185      27.01825804        1       0.00056040       0.00282272      -0.00013041
Pt       2.80828853       4.86430075      26.90917375        1      -0.00071573       0.00486045      -0.00076660
Pt       5.59884556       4.87069675      27.01825834        1       0.00215926      -0.00189010      -0.00013721
Pt       8.43676205       4.87150218      27.01825711        1      -0.00272514      -0.00092743      -0.00013256
O        7.01803879       4.05186375      29.55867591        0      -0.00000057      -0.00000042      -0.00923221
C        7.01803770       4.05186411      28.35819588        0      -0.00000234      -0.00000039       0.00392877
