38
Lattice="8.421641763931781 0.0 0.0 4.2108208819658905 7.293355709136913 0.0 0.0 0.0 46.87624170604845" Properties=species:S:1:pos:R:3:tags:I:1:forces:R:3 charge=0 spin=0 energy=-202.8856334650587 free_energy=-202.8856334650587 stress="0.01002599112689495 -1.6499193122854194e-08 1.701847551771607e-09 -1.6499193122854194e-08 0.010026013478636742 -1.0247843462707351e-08 1.701847551771607e-09 -1.0247843462707351e-08 -0.0002534050727263093" pbc="T T T"
Pt      -0.00000000       0.00000021      19.95723433        4       0.00252678       0.00111548       0.02364813
Pt       2.80721396      -0.00000008      19.95723446        4       0.00065108      -0.01594395       0.00972705
Pt       5.61442779      -0.00000016      19.95723449        4      -0.00226779       0.00161846       0.02364188
Pt       1.40360720       2.43111835      19.95723435        4      -0.01414423       0.00739386       0.00973424
Pt       4.21082080       2.43111834      19.95723443        4       0.01349096       0.00855711       0.00978473
Pt       7.01803483       2.43111844      19.95723431        4      -0.00174645       0.00237187       0.01089562
Pt       2.80721405       4.86223724      19.95723403        4      -0.00025581      -0.00273623       0.02369484
Pt       5.61442805       4.86223734      19.95723421        4       0.00296010       0.00031302       0.01094195
Pt       8.42164144       4.86223725      19.95723437        4      -0.00121425      -0.00269046       0.01088375
Pt       1.40360728       0.81037258      22.29206792        3       0.05146006       0.03163136      -0.15736808
Pt       4.21082126       0.81037248      22.29206794        3      -0.05316601       0.02883756      -0.15732102
Pt       7.01803474       0.81037256      22.29206786        3      -0.00361933       0.01246002      -0.02476840
Pt       2.80721448       3.24149124      22.29206779        3       0.00169405      -0.06045832      -0.15735683
Pt       5.61442762       3.24149125      22.29206790        3      -0.01968011      -0.01315327      -0.06404705
Pt       8.42164155       3.24149130      22.29206809        3       0.02126768      -0.01055473      -0.06406033
Pt       4.21082091       5.67260997      22.29206801        3       0.01261117      -0.00309952      -0.02491163
Pt       7.01803488       5.67261037      22.29206781        3      -0.00158134       0.02370421      -0.06416380
Pt       9.82524819       5.67261065      22.29206808        3      -0.00898379      -0.00936516      -0.02487735
Pt      -0.00000056       1.62074567      24.58417371        2      -0.08191169       0.03570922       0.12798887
Pt       2.80721444       1.62074547      24.58417389        2      -0.00000884       0.00000481      -0.20295960
Pt       5.61442780       1.62074536      24.58417372        2       0.08756069       0.03952182       0.13047737
Pt       1.40360637       4.05186441      24.58417386        2      -0.07808900       0.05617242       0.13055907
Pt       4.21082088       4.05186402      24.58417378        2       0.07198158       0.05318324       0.12816198
Pt       7.01803505       4.05186404      24.58417403        2      -0.00000584       0.00000671       0.13736330
Pt       2.80721282       6.48298342      24.58417366        2       0.00001459      -0.00001243      -0.01224890
Pt       5.61442796       6.48298327      24.58417384        2      -0.00946922      -0.09569471       0.13038220
Pt       8.42164224       6.48298339      24.58417376        2       0.00992341      -0.08889493       0.12799585
Pt      -0.00726466      -0.00349388      26.91493096        1       0.02979386       0.01753498      -0.01561584
Pt       2.80583366       0.01999342      26.90097449        1       0.00158251       0.03069448      -0.01857828
Pt       5.62108297      -0.00453988      26.91492461        1      -0.03008651       0.01700745      -0.01559381
Pt       1.42160917       2.42231468      26.90097401        1       0.02580550      -0.01671779      -0.01857983
Pt       4.19419358       2.41992675      26.90097202        1      -0.02737767      -0.01396188      -0.01857270
Pt       7.01951998       2.41247997      27.01582018        1      -0.00245951       0.02899850       0.02586071
Pt       2.80781669       4.87027448      26.91493427        1       0.00031923      -0.03457666      -0.01562846
Pt       5.59754736       4.87026809      27.01582914        1       0.02630557      -0.01235334       0.02581487
Pt       8.43704145       4.87284207      27.01582513        1      -0.02387750      -0.01662144       0.02583604
O        7.01803866       4.05186120      29.56202399        0       0.00000317      -0.00000748      -0.03906032
C        7.01803882       4.05186161      28.36171493        0      -0.00000688       0.00000560      -0.02768022
