38
Lattice="8.421641763931781 0.0 0.0 4.2108208819658905 7.293355709136913 0.0 0.0 0.0 46.87624170604845" Properties=species:S:1:pos:R:3:tags:I:1:forces:R:3 charge=0 spin=0 energy=-202.88563727975597 free_energy=-202.88563727975597 stress="0.010025987401604652 -1.926712478450554e-08 2.4155755173893567e-09 -1.926712478450554e-08 0.010026000440120697 -1.2750425604224347e-08 2.4155755173893567e-09 -1.2750425604224347e-08 -0.00025323190493509173" pbc="T T T"
Pt      -0.00000000       0.00000021      19.95723433        4       0.00252668       0.00111540       0.02364824
Pt       2.80721396      -0.00000008      19.95723446        4       0.00065127      -0.01594409       0.00972697
Pt       5.61442779      -0.00000016      19.95723449        4      -0.00226784       0.00161850       0.02364181
Pt       1.40360720       2.43111835      19.95723435        4      -0.01414445       0.00739380       0.00973418
Pt       4.21082080       2.43111834      19.95723443        4       0.01349080       0.00855730       0.00978454
Pt       7.01803483       2.43111844      19.95723431        4      -0.00174638       0.00237193       0.01089564
Pt       2.80721405       4.86223724      19.95723403        4      -0.00025570      -0.00273614       0.02369472
Pt       5.61442805       4.86223734      19.95723421        4       0.00296006       0.00031298       0.01094202
Pt       8.42164144       4.86223725      19.95723437        4      -0.00121423      -0.00269044       0.01088371
Pt       1.40360728       0.81037258      22.29206792        3       0.05145957       0.03163140      -0.15736857
Pt       4.21082126       0.81037248      22.29206794        3      -0.05316598       0.02883716      -0.15732211
Pt       7.01803474       0.81037256      22.29206786        3      -0.00361929       0.01245996      -0.02476782
Pt       2.80721448       3.24149124      22.29206779        3       0.00169400      -0.06045841      -0.15735660
Pt       5.61442762       3.24149125      22.29206790        3      -0.01968013      -0.01315322      -0.06404678
Pt       8.42164155       3.24149130      22.29206809        3       0.02126762      -0.01055484      -0.06406021
Pt       4.21082091       5.67260997      22.29206801        3       0.01261134      -0.00309961      -0.02491144
Pt       7.01803488       5.67261037      22.29206781        3      -0.00158141       0.02370414      -0.06416465
Pt       9.82524819       5.67261065      22.29206808        3      -0.00898407      -0.00936527      -0.02487725
Pt      -0.00000056       1.62074567      24.58417371        2      -0.08191191       0.03570947       0.12799029
Pt       2.80721444       1.62074547      24.58417389        2      -0.00000899       0.00000474      -0.20295469
Pt       5.61442780       1.62074536      24.58417372        2       0.08756140       0.03952179       0.13047922
Pt       1.40360637       4.05186441      24.58417386        2      -0.07808813       0.05617192       0.13055895
Pt       4.21082088       4.05186402      24.58417378        2       0.07198068       0.05318330       0.12816176
Pt       7.01803505       4.05186404      24.58417403        2      -0.00000586       0.00000589       0.13736346
Pt       2.80721282       6.48298342      24.58417366        2       0.00001490      -0.00001262      -0.01225097
Pt       5.61442796       6.48298327      24.58417384        2      -0.00946932      -0.09569419       0.13038240
Pt       8.42164224       6.48298339      24.58417376        2       0.00992384      -0.08889391       0.12799603
Pt      -0.00726514      -0.00349426      26.91493092        1       0.02980051       0.01753675      -0.01561435
Pt       2.80583374       0.01999241      26.90097479        1       0.00158284       0.03070475      -0.01858161
Pt       5.62108345      -0.00454016      26.91492407        1      -0.03009159       0.01701170      -0.01559332
Pt       1.42160837       2.42231514      26.90097428        1       0.02581201      -0.01672279      -0.01858163
Pt       4.19419439       2.41992722      26.90097233        1      -0.02738625      -0.01396768      -0.01857533
Pt       7.01951992       2.41248024      27.01582086        1      -0.00245879       0.02898758       0.02585214
Pt       2.80781665       4.87027511      26.91493424        1       0.00031856      -0.03458080      -0.01562860
Pt       5.59754754       4.87026801      27.01582941        1       0.02630077      -0.01234911       0.02581444
Pt       8.43704124       4.87284202      27.01582572        1      -0.02387305      -0.01661789       0.02583630
O        7.01803877       4.05186113      29.56202464        0       0.00000348      -0.00000471      -0.03947749
C        7.01803874       4.05186165      28.36171128        0      -0.00000711       0.00000497      -0.02725351
