38
Lattice="8.421641763931781 0.0 0.0 4.2108208819658905 7.293355709136913 0.0 0.0 0.0 46.87624170604845" Properties=species:S:1:pos:R:3:tags:I:1:forces:R:3 charge=0 spin=0 energy=-202.88632011056652 free_energy=-202.88632011056652 stress="0.010008875280618668 -1.9098948200735322e-08 1.6859758034115657e-09 -1.9098948200735322e-08 0.010008889250457287 -9.261029276785848e-09 1.6859758034115657e-09 -9.261029276785848e-09 -0.00029503137920983136" pbc="T T T"
Pt      -0.00000000       0.00000021      19.95723433        4       0.00273423       0.00124476       0.02372311
Pt       2.80721396      -0.00000008      19.95723446        4       0.00064215      -0.01587684       0.00965996
Pt       5.61442779      -0.00000016      19.95723449        4      -0.00248439       0.00173216       0.02371709
Pt       1.40360720       2.43111835      19.95723435        4      -0.01408070       0.00736676       0.00966764
Pt       4.21082080       2.43111834      19.95723443        4       0.01343607       0.00851686       0.00971844
Pt       7.01803483       2.43111844      19.95723431        4      -0.00175140       0.00274570       0.01100014
Pt       2.80721405       4.86223724      19.95723403        4      -0.00024692      -0.00297918       0.02376927
Pt       5.61442805       4.86223734      19.95723421        4       0.00328678       0.00013129       0.01104469
Pt       8.42164144       4.86223725      19.95723437        4      -0.00153600      -0.00288268       0.01098667
Pt       1.40360728       0.81037258      22.29206792        3       0.05155673       0.03178696      -0.15754513
Pt       4.21082126       0.81037248      22.29206794        3      -0.05335305       0.02884273      -0.15749477
Pt       7.01803474       0.81037256      22.29206786        3      -0.00368484       0.01226367      -0.02591102
Pt       2.80721448       3.24149124      22.29206779        3       0.00178340      -0.06061868      -0.15754107
Pt       5.61442762       3.24149125      22.29206790        3      -0.01969065      -0.01314073      -0.06245684
Pt       8.42164155       3.24149130      22.29206809        3       0.02126473      -0.01056728      -0.06247269
Pt       4.21082091       5.67260997      22.29206801        3       0.01247393      -0.00294456      -0.02606206
Pt       7.01803488       5.67261037      22.29206781        3      -0.00156910       0.02370612      -0.06257478
Pt       9.82524819       5.67261065      22.29206808        3      -0.00878200      -0.00932314      -0.02602597
Pt      -0.00000056       1.62074567      24.58417371        2      -0.08744771       0.03870793       0.12689012
Pt       2.80721444       1.62074547      24.58417389        2      -0.00000605       0.00000231      -0.23093429
Pt       5.61442780       1.62074536      24.58417372        2       0.09283619       0.04241081       0.12934560
Pt       1.40360637       4.05186441      24.58417386        2      -0.08322957       0.05929360       0.12942101
Pt       4.21082088       4.05186402      24.58417378        2       0.07734562       0.05647401       0.12704666
Pt       7.01803505       4.05186404      24.58417403        2      -0.00000340       0.00000158       0.14670023
Pt       2.80721282       6.48298342      24.58417366        2       0.00001242      -0.00000817       0.00365788
Pt       5.61442796       6.48298327      24.58417384        2      -0.00960105      -0.10170449       0.12923250
Pt       8.42164224       6.48298339      24.58417376        2       0.01009494      -0.09518551       0.12690103
Pt      -0.00151513      -0.00047441      26.91395107        1      -0.00835660      -0.00320606      -0.01662924
Pt       2.80614922       0.02478930      26.89887729        1       0.00086855      -0.01390253      -0.00274291
Pt       5.61559561      -0.00107484      26.91395061        1       0.00695552      -0.00563934      -0.01662097
Pt       1.42560949       2.41964395      26.89887694        1      -0.01247890       0.00620012      -0.00273837
Pt       4.18988431       2.41779975      26.89887622        1       0.01160483       0.00770955      -0.00273600
Pt       7.01951770       2.41236586      27.01984474        1      -0.00252854       0.01113012      -0.00531718
Pt       2.80756046       4.86378494      26.91395100        1       0.00140773       0.00884234      -0.01663019
Pt       5.59744653       4.87032765      27.01984357        1       0.01089963      -0.00336817      -0.00532445
Pt       8.43714079       4.87289732      27.01984312        1      -0.00837169      -0.00775527      -0.00532270
O        7.01803590       4.05186758      29.55952769        0      -0.00000113      -0.00000491      -0.01331734
C        7.01803535       4.05186593      28.35899279        0      -0.00000004      -0.00000184       0.00391591
