38
Lattice="8.421641763931781 0.0 0.0 4.2108208819658905 7.293355709136913 0.0 0.0 0.0 46.87624170604845" Properties=species:S:1:pos:R:3:tags:I:1:forces:R:3 charge=0 spin=0 energy=-202.8864936792921 free_energy=-202.8864936792921 stress="0.009958211332559586 -1.9431849906936804e-08 1.4600755049443137e-09 -1.9431849906936804e-08 0.009958223439753056 -1.5779374251678746e-08 1.4600755049443137e-09 -1.5779374251678746e-08 -0.00038507263525389135" pbc="T T T"
Pt      -0.00000000       0.00000021      19.95723433        4       0.00273260       0.00118296       0.02365418
Pt       2.80721396      -0.00000008      19.95723446        4       0.00065020      -0.01597210       0.00951607
Pt       5.61442779      -0.00000016      19.95723449        4      -0.00243058       0.00176160       0.02364883
Pt       1.40360720       2.43111835      19.95723435        4      -0.01416719       0.00740782       0.00952387
Pt       4.21082080       2.43111834      19.95723443        4       0.01351534       0.00857116       0.00957497
Pt       7.01803483       2.43111844      19.95723431        4      -0.00177560       0.00278729       0.01090911
Pt       2.80721405       4.86223724      19.95723403        4      -0.00029901      -0.00294667       0.02369987
Pt       5.61442805       4.86223734      19.95723421        4       0.00333484       0.00013070       0.01095268
Pt       8.42164144       4.86223725      19.95723437        4      -0.00156028      -0.00292362       0.01089456
Pt       1.40360728       0.81037258      22.29206792        3       0.05184335       0.03213177      -0.15794943
Pt       4.21082126       0.81037248      22.29206794        3      -0.05379435       0.02891844      -0.15789737
Pt       7.01803474       0.81037256      22.29206786        3      -0.00373750       0.01227542      -0.02539101
Pt       2.80721448       3.24149124      22.29206779        3       0.00193819      -0.06104067      -0.15794230
Pt       5.61442762       3.24149125      22.29206790        3      -0.01995559      -0.01328099      -0.06214116
Pt       8.42164155       3.24149130      22.29206809        3       0.02151792      -0.01072864      -0.06215671
Pt       4.21082091       5.67260997      22.29206801        3       0.01251082      -0.00290430      -0.02554409
Pt       7.01803488       5.67261037      22.29206781        3      -0.00155750       0.02400607      -0.06226229
Pt       9.82524819       5.67261065      22.29206808        3      -0.00876599      -0.00937477      -0.02550660
Pt      -0.00000056       1.62074567      24.58417371        2      -0.08973762       0.04043465       0.11567343
Pt       2.80721444       1.62074547      24.58417389        2      -0.00000473       0.00001170      -0.24438943
Pt       5.61442780       1.62074536      24.58417372        2       0.09446291       0.04357488       0.11799590
Pt       1.40360637       4.05186441      24.58417386        2      -0.08504600       0.06012892       0.11807285
Pt       4.21082088       4.05186402      24.58417378        2       0.07998111       0.05759318       0.11584706
Pt       7.01803505       4.05186404      24.58417403        2      -0.00000430       0.00000149       0.13881403
Pt       2.80721282       6.48298342      24.58417366        2       0.00000987      -0.00001425      -0.01335877
Pt       5.61442796       6.48298327      24.58417384        2      -0.00941399      -0.10370338       0.11787090
Pt       8.42164224       6.48298339      24.58417376        2       0.00975169      -0.09803241       0.11568160
Pt      -0.00232789      -0.00010649      26.90916670        1      -0.00384093      -0.00303368      -0.00074256
Pt       2.80626076       0.02371165      26.89509243        1       0.00060221      -0.00789204       0.01007304
Pt       5.61568065      -0.00196080      26.90916677        1       0.00455331      -0.00181578      -0.00074037
Pt       1.42461665       2.42008766      26.89509790        1      -0.00713025       0.00342241       0.01005320
Pt       4.19075961       2.41843829      26.89510134        1       0.00653989       0.00446528       0.01004389
Pt       7.01849811       2.41339122      27.01825815        1       0.00056259       0.00283004      -0.00013807
Pt       2.80828848       4.86430136      26.90917352        1      -0.00071503       0.00485600      -0.00076590
Pt       5.59884507       4.87069703      27.01825812        1       0.00216717      -0.00189506      -0.00013650
Pt       8.43676251       4.87150283      27.01825700        1      -0.00273534      -0.00093420      -0.00013148
O        7.01803905       4.05186385      29.55867562        0      -0.00000206       0.00000174      -0.00923027
C        7.01803753       4.05186418      28.35819570        0      -0.00000027      -0.00000117       0.00392427
