38
Lattice="8.421641763931781 0.0 0.0 4.2108208819658905 7.293355709136913 0.0 0.0 0.0 46.87624170604845" Properties=species:S:1:pos:R:3:tags:I:1:forces:R:3 charge=0 spin=0 energy=-202.8864936792921 free_energy=-202.8864936792921 stress="0.00995821412652731 -2.149951328078714e-08 1.404805605176307e-09 -2.149951328078714e-08 0.00995822437107563 -1.5536175013153297e-08 1.404805605176307e-09 -1.5536175013153297e-08 -0.00038513162871822715" pbc="T T T"
Pt      -0.00000000       0.00000021      19.95723433        4       0.00273262       0.00118284       0.02365432
Pt       2.80721396      -0.00000008      19.95723446        4       0.00065020      -0.01597225       0.00951607
Pt       5.61442779      -0.00000016      19.95723449        4      -0.00243054       0.00176149       0.02364868
Pt       1.40360720       2.43111835      19.95723435        4      -0.01416723       0.00740803       0.00952404
Pt       4.21082080       2.43111834      19.95723443        4       0.01351519       0.00857126       0.00957502
Pt       7.01803483       2.43111844      19.95723431        4      -0.00177559       0.00278741       0.01090909
Pt       2.80721405       4.86223724      19.95723403        4      -0.00029902      -0.00294675       0.02369996
Pt       5.61442805       4.86223734      19.95723421        4       0.00333489       0.00013091       0.01095262
Pt       8.42164144       4.86223725      19.95723437        4      -0.00156030      -0.00292371       0.01089460
Pt       1.40360728       0.81037258      22.29206792        3       0.05184351       0.03213192      -0.15794975
Pt       4.21082126       0.81037248      22.29206794        3      -0.05379443       0.02891856      -0.15789776
Pt       7.01803474       0.81037256      22.29206786        3      -0.00373747       0.01227535      -0.02539111
Pt       2.80721448       3.24149124      22.29206779        3       0.00193809      -0.06104058      -0.15794240
Pt       5.61442762       3.24149125      22.29206790        3      -0.01995551      -0.01328113      -0.06214075
Pt       8.42164155       3.24149130      22.29206809        3       0.02151810      -0.01072867      -0.06215661
Pt       4.21082091       5.67260997      22.29206801        3       0.01251073      -0.00290426      -0.02554420
Pt       7.01803488       5.67261037      22.29206781        3      -0.00155736       0.02400645      -0.06226227
Pt       9.82524819       5.67261065      22.29206808        3      -0.00876572      -0.00937478      -0.02550659
Pt      -0.00000056       1.62074567      24.58417371        2      -0.08973841       0.04043482       0.11567428
Pt       2.80721444       1.62074547      24.58417389        2      -0.00000478       0.00001152      -0.24438989
Pt       5.61442780       1.62074536      24.58417372        2       0.09446339       0.04357518       0.11799686
Pt       1.40360637       4.05186441      24.58417386        2      -0.08504647       0.06012931       0.11807355
Pt       4.21082088       4.05186402      24.58417378        2       0.07998136       0.05759366       0.11584713
Pt       7.01803505       4.05186404      24.58417403        2      -0.00000450       0.00000118       0.13881263
Pt       2.80721282       6.48298342      24.58417366        2       0.00000978      -0.00001400      -0.01335756
Pt       5.61442796       6.48298327      24.58417384        2      -0.00941422      -0.10370378       0.11787127
Pt       8.42164224       6.48298339      24.58417376        2       0.00975161      -0.09803318       0.11568098
Pt      -0.00232775      -0.00010643      26.90916655        1      -0.00384266      -0.00303331      -0.00074300
Pt       2.80626054       0.02371189      26.89509250        1       0.00060095      -0.00789384       0.01007368
Pt       5.61568044      -0.00196081      26.90916696        1       0.00455767      -0.00181598      -0.00074080
Pt       1.42461693       2.42008753      26.89509795        1      -0.00713200       0.00342289       0.01005362
Pt       4.19075939       2.41843827      26.89510149        1       0.00654218       0.00446554       0.01004401
Pt       7.01849812       2.41339187      27.01825820        1       0.00056174       0.00282340      -0.00013889
Pt       2.80828834       4.86430136      26.90917352        1      -0.00071656       0.00485719      -0.00076630
Pt       5.59884567       4.87069672      27.01825833        1       0.00216274      -0.00189285      -0.00013684
Pt       8.43676210       4.87150242      27.01825726        1      -0.00272843      -0.00093043      -0.00013261
O        7.01803901       4.05186385      29.55867600        0      -0.00000136       0.00000178      -0.00908973
C        7.01803757       4.05186417      28.35819791        0      -0.00000227      -0.00000130       0.00378478
