38
Lattice="8.421641763931781 0.0 0.0 4.2108208819658905 7.293355709136913 0.0 0.0 0.0 46.87624170604845" Properties=species:S:1:pos:R:3:tags:I:1:forces:R:3 charge=0 spin=0 energy=-202.88632106424083 free_energy=-202.88632106424083 stress="0.010008858516812325 -1.9850654453534844e-08 -3.2898031521177984e-10 -1.9850654453534844e-08 0.010008876211941242 -1.1928913856706913e-08 -3.2898031521177984e-10 -1.1928913856706913e-08 -0.0002949330082628876" pbc="T T T"
Pt      -0.00000000       0.00000021      19.95723433        4       0.00273417       0.00124481       0.02372296
Pt       2.80721396      -0.00000008      19.95723446        4       0.00064232      -0.01587699       0.00965992
Pt       5.61442779      -0.00000016      19.95723449        4      -0.00248451       0.00173219       0.02371715
Pt       1.40360720       2.43111835      19.95723435        4      -0.01408065       0.00736685       0.00966766
Pt       4.21082080       2.43111834      19.95723443        4       0.01343615       0.00851686       0.00971846
Pt       7.01803483       2.43111844      19.95723431        4      -0.00175160       0.00274593       0.01100010
Pt       2.80721405       4.86223724      19.95723403        4      -0.00024702      -0.00297911       0.02376919
Pt       5.61442805       4.86223734      19.95723421        4       0.00328675       0.00013139       0.01104477
Pt       8.42164144       4.86223725      19.95723437        4      -0.00153604      -0.00288269       0.01098674
Pt       1.40360728       0.81037258      22.29206792        3       0.05155682       0.03178672      -0.15754548
Pt       4.21082126       0.81037248      22.29206794        3      -0.05335318       0.02884262      -0.15749438
Pt       7.01803474       0.81037256      22.29206786        3      -0.00368475       0.01226360      -0.02591090
Pt       2.80721448       3.24149124      22.29206779        3       0.00178332      -0.06061876      -0.15754023
Pt       5.61442762       3.24149125      22.29206790        3      -0.01968998      -0.01314086      -0.06245706
Pt       8.42164155       3.24149130      22.29206809        3       0.02126448      -0.01056718      -0.06247292
Pt       4.21082091       5.67260997      22.29206801        3       0.01247419      -0.00294492      -0.02606226
Pt       7.01803488       5.67261037      22.29206781        3      -0.00156959       0.02370603      -0.06257462
Pt       9.82524819       5.67261065      22.29206808        3      -0.00878209      -0.00932337      -0.02602632
Pt      -0.00000056       1.62074567      24.58417371        2      -0.08744707       0.03870883       0.12688749
Pt       2.80721444       1.62074547      24.58417389        2      -0.00000573       0.00000250      -0.23093407
Pt       5.61442780       1.62074536      24.58417372        2       0.09283511       0.04241062       0.12934460
Pt       1.40360637       4.05186441      24.58417386        2      -0.08322747       0.05929264       0.12941782
Pt       4.21082088       4.05186402      24.58417378        2       0.07734518       0.05647359       0.12704659
Pt       7.01803505       4.05186404      24.58417403        2      -0.00000405       0.00000141       0.14669837
Pt       2.80721282       6.48298342      24.58417366        2       0.00001155      -0.00000878       0.00365443
Pt       5.61442796       6.48298327      24.58417384        2      -0.00960017      -0.10170469       0.12922961
Pt       8.42164224       6.48298339      24.58417376        2       0.01009534      -0.09518318       0.12689863
Pt      -0.00151571      -0.00047461      26.91395083        1      -0.00835497      -0.00320363      -0.01662298
Pt       2.80614925       0.02478904      26.89887754        1       0.00086973      -0.01389840      -0.00274304
Pt       5.61559620      -0.00107502      26.91395045        1       0.00695151      -0.00563694      -0.01662003
Pt       1.42560923       2.41964412      26.89887673        1      -0.01247558       0.00619772      -0.00273850
Pt       4.18988439       2.41779989      26.89887638        1       0.01160260       0.00770710      -0.00273697
Pt       7.01951776       2.41236560      27.01984494        1      -0.00252730       0.01112845      -0.00531794
Pt       2.80756052       4.86378542      26.91395096        1       0.00140971       0.00883965      -0.01662909
Pt       5.59744627       4.87032768      27.01984374        1       0.01089836      -0.00336617      -0.00532568
Pt       8.43714108       4.87289748      27.01984302        1      -0.00837689      -0.00775822      -0.00531471
O        7.01803581       4.05186753      29.55952745        0       0.00000120      -0.00000353      -0.01359574
C        7.01803545       4.05186583      28.35898974        0       0.00000001      -0.00000186       0.00419859
