38
Lattice="8.421641763931781 0.0 0.0 4.2108208819658905 7.293355709136913 0.0 0.0 0.0 46.87624170604845" Properties=species:S:1:pos:R:3:tags:I:1:forces:R:3 charge=0 spin=0 energy=-202.8856334650587 free_energy=-202.8856334650587 stress="0.010025995783507824 -1.76639485260921e-08 2.8120941131248856e-09 -1.76639485260921e-08 0.010026013478636742 -1.1773745534071622e-08 2.8120941131248856e-09 -1.1773745534071622e-08 -0.00025339843705296516" pbc="T T T"
Pt      -0.00000000       0.00000021      19.95723433        4       0.00252673       0.00111541       0.02364813
Pt       2.80721396      -0.00000008      19.95723446        4       0.00065130      -0.01594409       0.00972690
Pt       5.61442779      -0.00000016      19.95723449        4      -0.00226791       0.00161842       0.02364192
Pt       1.40360720       2.43111835      19.95723435        4      -0.01414420       0.00739388       0.00973422
Pt       4.21082080       2.43111834      19.95723443        4       0.01349082       0.00855718       0.00978466
Pt       7.01803483       2.43111844      19.95723431        4      -0.00174647       0.00237195       0.01089552
Pt       2.80721405       4.86223724      19.95723403        4      -0.00025581      -0.00273624       0.02369476
Pt       5.61442805       4.86223734      19.95723421        4       0.00296003       0.00031293       0.01094204
Pt       8.42164144       4.86223725      19.95723437        4      -0.00121414      -0.00269048       0.01088366
Pt       1.40360728       0.81037258      22.29206792        3       0.05145970       0.03163140      -0.15736851
Pt       4.21082126       0.81037248      22.29206794        3      -0.05316573       0.02883730      -0.15732157
Pt       7.01803474       0.81037256      22.29206786        3      -0.00361946       0.01246001      -0.02476797
Pt       2.80721448       3.24149124      22.29206779        3       0.00169402      -0.06045821      -0.15735690
Pt       5.61442762       3.24149125      22.29206790        3      -0.01968031      -0.01315320      -0.06404696
Pt       8.42164155       3.24149130      22.29206809        3       0.02126773      -0.01055447      -0.06406118
Pt       4.21082091       5.67260997      22.29206801        3       0.01261124      -0.00309948      -0.02491123
Pt       7.01803488       5.67261037      22.29206781        3      -0.00158159       0.02370444      -0.06416394
Pt       9.82524819       5.67261065      22.29206808        3      -0.00898394      -0.00936512      -0.02487726
Pt      -0.00000056       1.62074567      24.58417371        2      -0.08191130       0.03570749       0.12799168
Pt       2.80721444       1.62074547      24.58417389        2      -0.00000895       0.00000423      -0.20295469
Pt       5.61442780       1.62074536      24.58417372        2       0.08756083       0.03952138       0.13047816
Pt       1.40360637       4.05186441      24.58417386        2      -0.07808858       0.05617209       0.13055964
Pt       4.21082088       4.05186402      24.58417378        2       0.07198124       0.05318365       0.12816216
Pt       7.01803505       4.05186404      24.58417403        2      -0.00000589       0.00000674       0.13736312
Pt       2.80721282       6.48298342      24.58417366        2       0.00001630      -0.00001202      -0.01224902
Pt       5.61442796       6.48298327      24.58417384        2      -0.00947022      -0.09569384       0.13038415
Pt       8.42164224       6.48298339      24.58417376        2       0.00992370      -0.08889434       0.12799634
Pt      -0.00726525      -0.00349441      26.91493164        1       0.02980143       0.01753841      -0.01562103
Pt       2.80583373       0.01999252      26.90097484        1       0.00158168       0.03070271      -0.01858076
Pt       5.62108365      -0.00454031      26.91492444        1      -0.03009295       0.01701133      -0.01559271
Pt       1.42160843       2.42231514      26.90097441        1       0.02581178      -0.01672389      -0.01858207
Pt       4.19419439       2.41992712      26.90097238        1      -0.02738527      -0.01396660      -0.01857493
Pt       7.01951995       2.41248034      27.01582031        1      -0.00245928       0.02899466       0.02586078
Pt       2.80781684       4.87027524      26.91493443        1       0.00031952      -0.03458024      -0.01562865
Pt       5.59754742       4.87026809      27.01582907        1       0.02630485      -0.01235146       0.02581501
Pt       8.43704114       4.87284195      27.01582517        1      -0.02387727      -0.01662044       0.02583614
O        7.01803874       4.05186118      29.56202298        0       0.00000296      -0.00000736      -0.03905994
C        7.01803860       4.05186155      28.36171558        0      -0.00000659       0.00000577      -0.02767967
