38
Lattice="8.421641763931781 0.0 0.0 4.2108208819658905 7.293355709136913 0.0 0.0 0.0 46.87624170604845" Properties=species:S:1:pos:R:3:tags:I:1:forces:R:3 charge=0 spin=0 energy=-202.8860282862257 free_energy=-202.8860282862257 stress="0.009942461736500263 -2.252238395783479e-08 -1.5133710951076296e-10 -2.252238395783479e-08 0.009942473843693733 -1.6867341301463057e-08 -1.5133710951076296e-10 -1.6867341301463057e-08 -0.00042283005313947797" pbc="T T T"
Pt      -0.00000000       0.00000021      19.95723433        4       0.00242259       0.00100207       0.02362786
Pt       2.80721396      -0.00000008      19.95723446        4       0.00068961      -0.01587881       0.00963681
Pt       5.61442779      -0.00000016      19.95723449        4      -0.00211852       0.00158381       0.02362184
Pt       1.40360720       2.43111835      19.95723435        4      -0.01410659       0.00732733       0.00964378
Pt       4.21082080       2.43111834      19.95723443        4       0.01341494       0.00855835       0.00969541
Pt       7.01803483       2.43111844      19.95723431        4      -0.00176392       0.00275154       0.01081225
Pt       2.80721405       4.86223724      19.95723403        4      -0.00030099      -0.00258793       0.02367260
Pt       5.61442805       4.86223734      19.95723421        4       0.00329849       0.00013871       0.01085659
Pt       8.42164144       4.86223725      19.95723437        4      -0.00153523      -0.00289581       0.01079757
Pt       1.40360728       0.81037258      22.29206792        3       0.05156990       0.03194918      -0.15864135
Pt       4.21082126       0.81037248      22.29206794        3      -0.05349703       0.02877240      -0.15859146
Pt       7.01803474       0.81037256      22.29206786        3      -0.00362732       0.01224515      -0.02483528
Pt       2.80721448       3.24149124      22.29206779        3       0.00191503      -0.06071150      -0.15863349
Pt       5.61442762       3.24149125      22.29206790        3      -0.01993231      -0.01328838      -0.06293549
Pt       8.42164155       3.24149130      22.29206809        3       0.02151064      -0.01070459      -0.06294879
Pt       4.21082091       5.67260997      22.29206801        3       0.01243045      -0.00298557      -0.02499055
Pt       7.01803488       5.67261037      22.29206781        3      -0.00157335       0.02399026      -0.06305767
Pt       9.82524819       5.67261065      22.29206808        3      -0.00879556      -0.00926521      -0.02495260
Pt      -0.00000056       1.62074567      24.58417371        2      -0.08557232       0.03871548       0.11624444
Pt       2.80721444       1.62074547      24.58417389        2      -0.00000954       0.00000598      -0.21476652
Pt       5.61442780       1.62074536      24.58417372        2       0.09023941       0.04206382       0.11794081
Pt       1.40360637       4.05186441      24.58417386        2      -0.08163090       0.05721922       0.11800909
Pt       4.21082088       4.05186402      24.58417378        2       0.07641266       0.05484202       0.11641531
Pt       7.01803505       4.05186404      24.58417403        2      -0.00000421       0.00000065       0.13543291
Pt       2.80721282       6.48298342      24.58417366        2       0.00001159      -0.00000505      -0.01609097
Pt       5.61442796       6.48298327      24.58417384        2      -0.00860678      -0.09928117       0.11782037
Pt       8.42164224       6.48298339      24.58417376        2       0.00915506      -0.09356137       0.11624524
Pt      -0.00356884      -0.00121321      26.90937886        1       0.00780015       0.00528558      -0.00032059
Pt       2.80620923       0.01810210      26.89737912        1       0.00095281       0.04052755      -0.00538451
Pt       5.61725948      -0.00248128      26.90937649        1      -0.00846646       0.00410879      -0.00031030
Pt       1.41978399       2.42293803      26.89738025        1       0.03462261      -0.02109972      -0.00539341
Pt       4.19564196       2.42119527      26.89738112        1      -0.03556046      -0.01941247      -0.00539295
Pt       7.01857852       2.41301826      27.01779476        1       0.00088499      -0.01630454      -0.01612221
Pt       2.80794610       4.86593369      26.90937602        1       0.00069161      -0.00940021      -0.00031552
Pt       5.59848446       4.87081552      27.01779303        1      -0.01458707       0.00738072      -0.01611824
Pt       8.43704639       4.87175971      27.01779332        1       0.01366860       0.00891209      -0.01610928
O        7.01803721       4.05186241      29.55135463        0       0.00000105       0.00000534       0.03785308
C        7.01803753       4.05186398      28.35093731        0      -0.00000367      -0.00000367       0.02758524
