38
Lattice="8.421641763931781 0.0 0.0 4.2108208819658905 7.293355709136913 0.0 0.0 0.0 46.87624170604845" Properties=species:S:1:pos:R:3:tags:I:1:forces:R:3 charge=0 spin=0 energy=-202.88649749398937 free_energy=-202.88649749398937 stress="0.00995820015668869 -1.9799850647927997e-08 3.368499257305757e-09 -1.9799850647927997e-08 0.009958219714462757 -1.6348906228813576e-08 3.368499257305757e-09 -1.6348906228813576e-08 -0.00038507895078510046" pbc="T T T"
Pt      -0.00000000       0.00000021      19.95723433        4       0.00273272       0.00118273       0.02365426
Pt       2.80721396      -0.00000008      19.95723446        4       0.00065023      -0.01597227       0.00951590
Pt       5.61442779      -0.00000016      19.95723449        4      -0.00243054       0.00176137       0.02364854
Pt       1.40360720       2.43111835      19.95723435        4      -0.01416728       0.00740811       0.00952415
Pt       4.21082080       2.43111834      19.95723443        4       0.01351514       0.00857129       0.00957502
Pt       7.01803483       2.43111844      19.95723431        4      -0.00177546       0.00278739       0.01090890
Pt       2.80721405       4.86223724      19.95723403        4      -0.00029905      -0.00294682       0.02369994
Pt       5.61442805       4.86223734      19.95723421        4       0.00333477       0.00013100       0.01095245
Pt       8.42164144       4.86223725      19.95723437        4      -0.00156045      -0.00292375       0.01089456
Pt       1.40360728       0.81037258      22.29206792        3       0.05184352       0.03213173      -0.15795012
Pt       4.21082126       0.81037248      22.29206794        3      -0.05379466       0.02891857      -0.15789798
Pt       7.01803474       0.81037256      22.29206786        3      -0.00373741       0.01227529      -0.02539139
Pt       2.80721448       3.24149124      22.29206779        3       0.00193834      -0.06104047      -0.15794191
Pt       5.61442762       3.24149125      22.29206790        3      -0.01995548      -0.01328148      -0.06214082
Pt       8.42164155       3.24149130      22.29206809        3       0.02151836      -0.01072882      -0.06215702
Pt       4.21082091       5.67260997      22.29206801        3       0.01251083      -0.00290453      -0.02554406
Pt       7.01803488       5.67261037      22.29206781        3      -0.00155729       0.02400652      -0.06226243
Pt       9.82524819       5.67261065      22.29206808        3      -0.00876561      -0.00937471      -0.02550650
Pt      -0.00000056       1.62074567      24.58417371        2      -0.08973704       0.04043430       0.11567165
Pt       2.80721444       1.62074547      24.58417389        2      -0.00000450       0.00001176      -0.24438728
Pt       5.61442780       1.62074536      24.58417372        2       0.09446216       0.04357409       0.11799452
Pt       1.40360637       4.05186441      24.58417386        2      -0.08504575       0.06012900       0.11807287
Pt       4.21082088       4.05186402      24.58417378        2       0.07997937       0.05759298       0.11584472
Pt       7.01803505       4.05186404      24.58417403        2      -0.00000356       0.00000162       0.13880935
Pt       2.80721282       6.48298342      24.58417366        2       0.00000957      -0.00001405      -0.01335649
Pt       5.61442796       6.48298327      24.58417384        2      -0.00941396      -0.10370213       0.11786908
Pt       8.42164224       6.48298339      24.58417376        2       0.00975181      -0.09803251       0.11568113
Pt      -0.00232709      -0.00010608      26.90916689        1      -0.00384788      -0.00303611      -0.00074345
Pt       2.80626066       0.02371115      26.89509229        1       0.00060428      -0.00788814       0.01007253
Pt       5.61567985      -0.00196047      26.90916713        1       0.00455812      -0.00181863      -0.00074207
Pt       1.42461628       2.42008789      26.89509764        1      -0.00712579       0.00342144       0.01005250
Pt       4.19075997       2.41843863      26.89510125        1       0.00653516       0.00446176       0.01004344
Pt       7.01849805       2.41339205      27.01825752        1       0.00056210       0.00282266      -0.00012974
Pt       2.80828839       4.86430083      26.90917365        1      -0.00071774       0.00486012      -0.00076630
Pt       5.59884558       4.87069666      27.01825736        1       0.00216301      -0.00189214      -0.00012744
Pt       8.43676199       4.87150227      27.01825661        1      -0.00272563      -0.00092772      -0.00013272
O        7.01803907       4.05186375      29.55867604        0      -0.00000397       0.00000086      -0.00923382
C        7.01803754       4.05186421      28.35819534        0      -0.00000037      -0.00000040       0.00392597
