38
Lattice="8.421641763931781 0.0 0.0 4.2108208819658905 7.293355709136913 0.0 0.0 0.0 46.87624170604845" Properties=species:S:1:pos:R:3:tags:I:1:forces:R:3 charge=0 spin=0 energy=-202.88563727975597 free_energy=-202.88563727975597 stress="0.010025995783507824 -1.7355095138782417e-08 7.967088655469468e-10 -1.7355095138782417e-08 0.010026014409959316 -1.5521969487508613e-08 7.967088655469468e-10 -1.5521969487508613e-08 -0.000253279140451923" pbc="T T T"
Pt      -0.00000000       0.00000021      19.95723433        4       0.00252667       0.00111532       0.02364830
Pt       2.80721396      -0.00000008      19.95723446        4       0.00065129      -0.01594416       0.00972714
Pt       5.61442779      -0.00000016      19.95723449        4      -0.00226772       0.00161852       0.02364186
Pt       1.40360720       2.43111835      19.95723435        4      -0.01414425       0.00739392       0.00973422
Pt       4.21082080       2.43111834      19.95723443        4       0.01349089       0.00855724       0.00978458
Pt       7.01803483       2.43111844      19.95723431        4      -0.00174644       0.00237189       0.01089567
Pt       2.80721405       4.86223724      19.95723403        4      -0.00025571      -0.00273612       0.02369472
Pt       5.61442805       4.86223734      19.95723421        4       0.00296000       0.00031309       0.01094208
Pt       8.42164144       4.86223725      19.95723437        4      -0.00121424      -0.00269056       0.01088373
Pt       1.40360728       0.81037258      22.29206792        3       0.05145963       0.03163126      -0.15736853
Pt       4.21082126       0.81037248      22.29206794        3      -0.05316610       0.02883711      -0.15732227
Pt       7.01803474       0.81037256      22.29206786        3      -0.00361935       0.01245979      -0.02476731
Pt       2.80721448       3.24149124      22.29206779        3       0.00169402      -0.06045840      -0.15735665
Pt       5.61442762       3.24149125      22.29206790        3      -0.01968028      -0.01315305      -0.06404685
Pt       8.42164155       3.24149130      22.29206809        3       0.02126749      -0.01055449      -0.06406105
Pt       4.21082091       5.67260997      22.29206801        3       0.01261131      -0.00309985      -0.02491124
Pt       7.01803488       5.67261037      22.29206781        3      -0.00158190       0.02370443      -0.06416421
Pt       9.82524819       5.67261065      22.29206808        3      -0.00898409      -0.00936523      -0.02487727
Pt      -0.00000056       1.62074567      24.58417371        2      -0.08191224       0.03570791       0.12799323
Pt       2.80721444       1.62074547      24.58417389        2      -0.00000909       0.00000461      -0.20295414
Pt       5.61442780       1.62074536      24.58417372        2       0.08756187       0.03952167       0.13047966
Pt       1.40360637       4.05186441      24.58417386        2      -0.07808825       0.05617191       0.13055940
Pt       4.21082088       4.05186402      24.58417378        2       0.07198092       0.05318354       0.12816158
Pt       7.01803505       4.05186404      24.58417403        2      -0.00000575       0.00000578       0.13736396
Pt       2.80721282       6.48298342      24.58417366        2       0.00001615      -0.00001131      -0.01224894
Pt       5.61442796       6.48298327      24.58417384        2      -0.00947021      -0.09569356       0.13038428
Pt       8.42164224       6.48298339      24.58417376        2       0.00992397      -0.08889400       0.12799644
Pt      -0.00726522      -0.00349452      26.91493161        1       0.02980081       0.01753951      -0.01562084
Pt       2.80583373       0.01999233      26.90097489        1       0.00158251       0.03070484      -0.01858167
Pt       5.62108350      -0.00454037      26.91492424        1      -0.03009377       0.01701258      -0.01559217
Pt       1.42160834       2.42231517      26.90097453        1       0.02581351      -0.01672345      -0.01858354
Pt       4.19419452       2.41992731      26.90097251        1      -0.02738613      -0.01396812      -0.01857542
Pt       7.01951996       2.41248051      27.01582066        1      -0.00245803       0.02898775       0.02585272
Pt       2.80781685       4.87027530      26.91493448        1       0.00031845      -0.03458262      -0.01562867
Pt       5.59754749       4.87026804      27.01582970        1       0.02630292      -0.01234965       0.02581604
Pt       8.43704120       4.87284185      27.01582556        1      -0.02387546      -0.01661889       0.02583740
O        7.01803876       4.05186119      29.56202431        0       0.00000327      -0.00000433      -0.03933916
C        7.01803862       4.05186167      28.36171251        0      -0.00000652       0.00000505      -0.02739711
