38
Lattice="8.421641763931781 0.0 0.0 4.2108208819658905 7.293355709136913 0.0 0.0 0.0 46.87624170604845" Properties=species:S:1:pos:R:3:tags:I:1:forces:R:3 charge=0 spin=0 energy=-202.88632011056652 free_energy=-202.88632011056652 stress="0.010008865967392921 -1.948052563705005e-08 -5.452536755434778e-10 -1.948052563705005e-08 0.010008889250457287 -9.54109591333463e-09 -5.452536755434778e-10 -9.54109591333463e-09 -0.00029504430131055415" pbc="T T T"
Pt      -0.00000000       0.00000021      19.95723433        4       0.00273405       0.00124489       0.02372283
Pt       2.80721396      -0.00000008      19.95723446        4       0.00064237      -0.01587678       0.00965990
Pt       5.61442779      -0.00000016      19.95723449        4      -0.00248445       0.00173219       0.02371719
Pt       1.40360720       2.43111835      19.95723435        4      -0.01408075       0.00736686       0.00966783
Pt       4.21082080       2.43111834      19.95723443        4       0.01343606       0.00851690       0.00971855
Pt       7.01803483       2.43111844      19.95723431        4      -0.00175133       0.00274562       0.01100012
Pt       2.80721405       4.86223724      19.95723403        4      -0.00024709      -0.00297917       0.02376913
Pt       5.61442805       4.86223734      19.95723421        4       0.00328672       0.00013134       0.01104454
Pt       8.42164144       4.86223725      19.95723437        4      -0.00153582      -0.00288275       0.01098687
Pt       1.40360728       0.81037258      22.29206792        3       0.05155683       0.03178693      -0.15754545
Pt       4.21082126       0.81037248      22.29206794        3      -0.05335335       0.02884256      -0.15749474
Pt       7.01803474       0.81037256      22.29206786        3      -0.00368477       0.01226365      -0.02591085
Pt       2.80721448       3.24149124      22.29206779        3       0.00178339      -0.06061890      -0.15754086
Pt       5.61442762       3.24149125      22.29206790        3      -0.01969042      -0.01314115      -0.06245627
Pt       8.42164155       3.24149130      22.29206809        3       0.02126477      -0.01056756      -0.06247169
Pt       4.21082091       5.67260997      22.29206801        3       0.01247403      -0.00294490      -0.02606278
Pt       7.01803488       5.67261037      22.29206781        3      -0.00156959       0.02370614      -0.06257458
Pt       9.82524819       5.67261065      22.29206808        3      -0.00878228      -0.00932357      -0.02602652
Pt      -0.00000056       1.62074567      24.58417371        2      -0.08744834       0.03870964       0.12688844
Pt       2.80721444       1.62074547      24.58417389        2      -0.00000538       0.00000416      -0.23093736
Pt       5.61442780       1.62074536      24.58417372        2       0.09283613       0.04241120       0.12934501
Pt       1.40360637       4.05186441      24.58417386        2      -0.08323035       0.05929324       0.12941898
Pt       4.21082088       4.05186402      24.58417378        2       0.07734667       0.05647333       0.12704501
Pt       7.01803505       4.05186404      24.58417403        2      -0.00000331       0.00000165       0.14669995
Pt       2.80721282       6.48298342      24.58417366        2       0.00001156      -0.00000733       0.00365427
Pt       5.61442796       6.48298327      24.58417384        2      -0.00960057      -0.10170604       0.12922855
Pt       8.42164224       6.48298339      24.58417376        2       0.01009648      -0.09518610       0.12690000
Pt      -0.00151493      -0.00047433      26.91395075        1      -0.00836010      -0.00320505      -0.01662402
Pt       2.80614932       0.02478921      26.89887706        1       0.00087112      -0.01390203      -0.00273596
Pt       5.61559567      -0.00107460      26.91395027        1       0.00695243      -0.00564017      -0.01662135
Pt       1.42560932       2.41964392      26.89887696        1      -0.01247833       0.00620083      -0.00273803
Pt       4.18988442       2.41779983      26.89887618        1       0.01160512       0.00770861      -0.00273587
Pt       7.01951775       2.41236605      27.01984499        1      -0.00252724       0.01112951      -0.00531667
Pt       2.80756054       4.86378493      26.91395060        1       0.00140737       0.00884220      -0.01662472
Pt       5.59744650       4.87032752      27.01984391        1       0.01090029      -0.00336866      -0.00532439
Pt       8.43714064       4.87289720      27.01984360        1      -0.00837076      -0.00775446      -0.00532294
O        7.01803591       4.05186775      29.55952809        0      -0.00000124      -0.00000573      -0.01331801
C        7.01803536       4.05186602      28.35899301        0       0.00000025      -0.00000119       0.00391590
