38
Lattice="8.421641763931781 0.0 0.0 4.2108208819658905 7.293355709136913 0.0 0.0 0.0 46.87624170604845" Properties=species:S:1:pos:R:3:tags:I:1:forces:R:3 charge=0 spin=0 energy=-202.8856334650587 free_energy=-202.8856334650587 stress="0.0100259929895401 -1.771504010150693e-08 4.066600833851908e-09 -1.771504010150693e-08 0.010026015341281891 -1.1372089936401153e-08 4.066600833851908e-09 -1.1372089936401153e-08 -0.0002533980004955083" pbc="T T T"
Pt      -0.00000000       0.00000021      19.95723433        4       0.00252667       0.00111550       0.02364822
Pt       2.80721396      -0.00000008      19.95723446        4       0.00065120      -0.01594389       0.00972697
Pt       5.61442779      -0.00000016      19.95723449        4      -0.00226793       0.00161858       0.02364179
Pt       1.40360720       2.43111835      19.95723435        4      -0.01414425       0.00739377       0.00973430
Pt       4.21082080       2.43111834      19.95723443        4       0.01349084       0.00855712       0.00978468
Pt       7.01803483       2.43111844      19.95723431        4      -0.00174651       0.00237177       0.01089547
Pt       2.80721405       4.86223724      19.95723403        4      -0.00025586      -0.00273613       0.02369484
Pt       5.61442805       4.86223734      19.95723421        4       0.00296005       0.00031308       0.01094202
Pt       8.42164144       4.86223725      19.95723437        4      -0.00121417      -0.00269061       0.01088375
Pt       1.40360728       0.81037258      22.29206792        3       0.05146017       0.03163149      -0.15736789
Pt       4.21082126       0.81037248      22.29206794        3      -0.05316578       0.02883727      -0.15732154
Pt       7.01803474       0.81037256      22.29206786        3      -0.00361922       0.01245996      -0.02476833
Pt       2.80721448       3.24149124      22.29206779        3       0.00169405      -0.06045814      -0.15735669
Pt       5.61442762       3.24149125      22.29206790        3      -0.01968002      -0.01315327      -0.06404717
Pt       8.42164155       3.24149130      22.29206809        3       0.02126779      -0.01055438      -0.06406085
Pt       4.21082091       5.67260997      22.29206801        3       0.01261142      -0.00309956      -0.02491168
Pt       7.01803488       5.67261037      22.29206781        3      -0.00158149       0.02370419      -0.06416357
Pt       9.82524819       5.67261065      22.29206808        3      -0.00898382      -0.00936517      -0.02487749
Pt      -0.00000056       1.62074567      24.58417371        2      -0.08191149       0.03570784       0.12799162
Pt       2.80721444       1.62074547      24.58417389        2      -0.00000942       0.00000474      -0.20295779
Pt       5.61442780       1.62074536      24.58417372        2       0.08756106       0.03952143       0.13047847
Pt       1.40360637       4.05186441      24.58417386        2      -0.07808901       0.05617227       0.13055927
Pt       4.21082088       4.05186402      24.58417378        2       0.07198139       0.05318363       0.12816173
Pt       7.01803505       4.05186404      24.58417403        2      -0.00000603       0.00000667       0.13736326
Pt       2.80721282       6.48298342      24.58417366        2       0.00001587      -0.00001183      -0.01224776
Pt       5.61442796       6.48298327      24.58417384        2      -0.00947061      -0.09569365       0.13038412
Pt       8.42164224       6.48298339      24.58417376        2       0.00992368      -0.08889491       0.12799552
Pt      -0.00726477      -0.00349418      26.91493143        1       0.02979874       0.01753505      -0.01562127
Pt       2.80583369       0.01999300      26.90097457        1       0.00158076       0.03069848      -0.01857883
Pt       5.62108299      -0.00454008      26.91492397        1      -0.03008786       0.01701040      -0.01559266
Pt       1.42160878       2.42231487      26.90097415        1       0.02580763      -0.01672048      -0.01858144
Pt       4.19419401       2.41992697      26.90097220        1      -0.02738156      -0.01396350      -0.01857397
Pt       7.01952000       2.41248017      27.01582045        1      -0.00245967       0.02899568       0.02586050
Pt       2.80781682       4.87027477      26.91493424        1       0.00031960      -0.03457700      -0.01562827
Pt       5.59754746       4.87026816      27.01582944        1       0.02630451      -0.01235306       0.02581492
Pt       8.43704143       4.87284202      27.01582536        1      -0.02387744      -0.01662138       0.02583623
O        7.01803874       4.05186119      29.56202266        0       0.00000321      -0.00000778      -0.03906055
C        7.01803863       4.05186159      28.36171519        0      -0.00000673       0.00000585      -0.02768005
