38
Lattice="8.421641763931781 0.0 0.0 4.2108208819658905 7.293355709136913 0.0 0.0 0.0 46.87624170604845" Properties=species:S:1:pos:R:3:tags:I:1:forces:R:3 charge=0 spin=0 energy=-202.88632011056652 free_energy=-202.88632011056652 stress="0.010008862242102623 -2.1563723251460942e-08 -9.69234137393471e-10 -2.1563723251460942e-08 0.010008882731199265 -9.75268932279505e-09 -9.69234137393471e-10 -9.75268932279505e-09 -0.0002949814370367676" pbc="T T T"
Pt      -0.00000000       0.00000021      19.95723433        4       0.00273418       0.00124490       0.02372309
Pt       2.80721396      -0.00000008      19.95723446        4       0.00064235      -0.01587703       0.00965996
Pt       5.61442779      -0.00000016      19.95723449        4      -0.00248449       0.00173208       0.02371698
Pt       1.40360720       2.43111835      19.95723435        4      -0.01408076       0.00736696       0.00966774
Pt       4.21082080       2.43111834      19.95723443        4       0.01343626       0.00851685       0.00971840
Pt       7.01803483       2.43111844      19.95723431        4      -0.00175147       0.00274576       0.01100008
Pt       2.80721405       4.86223724      19.95723403        4      -0.00024700      -0.00297909       0.02376923
Pt       5.61442805       4.86223734      19.95723421        4       0.00328675       0.00013130       0.01104473
Pt       8.42164144       4.86223725      19.95723437        4      -0.00153611      -0.00288254       0.01098663
Pt       1.40360728       0.81037258      22.29206792        3       0.05155670       0.03178679      -0.15754503
Pt       4.21082126       0.81037248      22.29206794        3      -0.05335324       0.02884252      -0.15749462
Pt       7.01803474       0.81037256      22.29206786        3      -0.00368479       0.01226368      -0.02591101
Pt       2.80721448       3.24149124      22.29206779        3       0.00178316      -0.06061880      -0.15754098
Pt       5.61442762       3.24149125      22.29206790        3      -0.01969046      -0.01314109      -0.06245619
Pt       8.42164155       3.24149130      22.29206809        3       0.02126483      -0.01056759      -0.06247334
Pt       4.21082091       5.67260997      22.29206801        3       0.01247391      -0.00294457      -0.02606230
Pt       7.01803488       5.67261037      22.29206781        3      -0.00156927       0.02370609      -0.06257506
Pt       9.82524819       5.67261065      22.29206808        3      -0.00878206      -0.00932319      -0.02602604
Pt      -0.00000056       1.62074567      24.58417371        2      -0.08744743       0.03870774       0.12688996
Pt       2.80721444       1.62074547      24.58417389        2      -0.00000598       0.00000266      -0.23093502
Pt       5.61442780       1.62074536      24.58417372        2       0.09283601       0.04241082       0.12934490
Pt       1.40360637       4.05186441      24.58417386        2      -0.08322794       0.05929292       0.12941828
Pt       4.21082088       4.05186402      24.58417378        2       0.07734543       0.05647391       0.12704650
Pt       7.01803505       4.05186404      24.58417403        2      -0.00000418       0.00000115       0.14669801
Pt       2.80721282       6.48298342      24.58417366        2       0.00001261      -0.00000787       0.00365804
Pt       5.61442796       6.48298327      24.58417384        2      -0.00960087      -0.10170402       0.12923282
Pt       8.42164224       6.48298339      24.58417376        2       0.01009499      -0.09518390       0.12689933
Pt      -0.00151532      -0.00047438      26.91395152        1      -0.00835658      -0.00320667      -0.01662928
Pt       2.80614941       0.02478946      26.89887736        1       0.00086775      -0.01390226      -0.00274319
Pt       5.61559558      -0.00107477      26.91395064        1       0.00695632      -0.00563993      -0.01662169
Pt       1.42560949       2.41964407      26.89887691        1      -0.01247855       0.00619834      -0.00273812
Pt       4.18988431       2.41779969      26.89887641        1       0.01160446       0.00770942      -0.00273604
Pt       7.01951786       2.41236588      27.01984435        1      -0.00252781       0.01112741      -0.00531695
Pt       2.80756035       4.86378493      26.91395111        1       0.00140935       0.00884346      -0.01663006
Pt       5.59744684       4.87032746      27.01984376        1       0.01089465      -0.00336426      -0.00532522
Pt       8.43714063       4.87289726      27.01984285        1      -0.00837154      -0.00775499      -0.00531544
O        7.01803573       4.05186781      29.55952821        0       0.00000104      -0.00000531      -0.01345748
C        7.01803540       4.05186593      28.35899214        0      -0.00000023      -0.00000151       0.00405837
