38
Lattice="8.421641763931781 0.0 0.0 4.2108208819658905 7.293355709136913 0.0 0.0 0.0 46.87624170604845" Properties=species:S:1:pos:R:3:tags:I:1:forces:R:3 charge=0 spin=0 energy=-202.8860282862257 free_energy=-202.8860282862257 stress="0.009942458011209965 -2.1006663075695542e-08 1.3499246165338263e-09 -2.1006663075695542e-08 0.009942473843693733 -1.7951485631328978e-08 1.3499246165338263e-09 -1.7951485631328978e-08 -0.00042289961129426956" pbc="T T T"
Pt      -0.00000000       0.00000021      19.95723433        4       0.00242235       0.00100212       0.02362786
Pt       2.80721396      -0.00000008      19.95723446        4       0.00068978      -0.01587858       0.00963661
Pt       5.61442779      -0.00000016      19.95723449        4      -0.00211843       0.00158399       0.02362163
Pt       1.40360720       2.43111835      19.95723435        4      -0.01410672       0.00732719       0.00964385
Pt       4.21082080       2.43111834      19.95723443        4       0.01341486       0.00855830       0.00969529
Pt       7.01803483       2.43111844      19.95723431        4      -0.00176378       0.00275142       0.01081218
Pt       2.80721405       4.86223724      19.95723403        4      -0.00030105      -0.00258806       0.02367247
Pt       5.61442805       4.86223734      19.95723421        4       0.00329859       0.00013859       0.01085646
Pt       8.42164144       4.86223725      19.95723437        4      -0.00153514      -0.00289572       0.01079740
Pt       1.40360728       0.81037258      22.29206792        3       0.05157002       0.03194918      -0.15864131
Pt       4.21082126       0.81037248      22.29206794        3      -0.05349688       0.02877232      -0.15859100
Pt       7.01803474       0.81037256      22.29206786        3      -0.00362745       0.01224505      -0.02483554
Pt       2.80721448       3.24149124      22.29206779        3       0.00191513      -0.06071146      -0.15863308
Pt       5.61442762       3.24149125      22.29206790        3      -0.01993241      -0.01328847      -0.06293609
Pt       8.42164155       3.24149130      22.29206809        3       0.02151096      -0.01070486      -0.06294948
Pt       4.21082091       5.67260997      22.29206801        3       0.01243036      -0.00298573      -0.02499073
Pt       7.01803488       5.67261037      22.29206781        3      -0.00157330       0.02399019      -0.06305774
Pt       9.82524819       5.67261065      22.29206808        3      -0.00879535      -0.00926517      -0.02495250
Pt      -0.00000056       1.62074567      24.58417371        2      -0.08557101       0.03871508       0.11624217
Pt       2.80721444       1.62074547      24.58417389        2      -0.00000940       0.00000611      -0.21476632
Pt       5.61442780       1.62074536      24.58417372        2       0.09023811       0.04206293       0.11793874
Pt       1.40360637       4.05186441      24.58417386        2      -0.08163025       0.05721879       0.11800788
Pt       4.21082088       4.05186402      24.58417378        2       0.07641155       0.05484137       0.11641361
Pt       7.01803505       4.05186404      24.58417403        2      -0.00000306       0.00000108       0.13543086
Pt       2.80721282       6.48298342      24.58417366        2       0.00001143      -0.00000514      -0.01609159
Pt       5.61442796       6.48298327      24.58417384        2      -0.00860663      -0.09927969       0.11781816
Pt       8.42164224       6.48298339      24.58417376        2       0.00915443      -0.09356105       0.11624555
Pt      -0.00356915      -0.00121323      26.90937879        1       0.00779925       0.00528549      -0.00032103
Pt       2.80620920       0.01810204      26.89737925        1       0.00095579       0.04052840      -0.00538495
Pt       5.61725970      -0.00248133      26.90937660        1      -0.00846764       0.00410895      -0.00031030
Pt       1.41978399       2.42293800      26.89738029        1       0.03462339      -0.02110036      -0.00539292
Pt       4.19564207       2.42119541      26.89738133        1      -0.03556070      -0.01941488      -0.00539265
Pt       7.01857868       2.41301811      27.01779440        1       0.00088512      -0.01630057      -0.01611557
Pt       2.80794612       4.86593368      26.90937594        1       0.00069157      -0.00940003      -0.00031493
Pt       5.59848431       4.87081552      27.01779243        1      -0.01458308       0.00737980      -0.01611098
Pt       8.43704656       4.87175976      27.01779282        1       0.01366218       0.00891215      -0.01610943
O        7.01803716       4.05186236      29.55135423        0      -0.00000032       0.00000460       0.03799320
C        7.01803748       4.05186406      28.35093668        0      -0.00000220      -0.00000312       0.02744416
