38
Lattice="8.421641763931781 0.0 0.0 4.2108208819658905 7.293355709136913 0.0 0.0 0.0 46.87624170604845" Properties=species:S:1:pos:R:3:tags:I:1:forces:R:3 charge=0 spin=0 energy=-202.88632106424083 free_energy=-202.88632106424083 stress="0.010008862242102623 -1.992228604308366e-08 5.644042178065689e-11 -1.992228604308366e-08 0.010008877143263817 -1.0894836144359488e-08 5.644042178065689e-11 -1.0894836144359488e-08 -0.00029511397588066757" pbc="T T T"
Pt      -0.00000000       0.00000021      19.95723433        4       0.00273403       0.00124477       0.02372330
Pt       2.80721396      -0.00000008      19.95723446        4       0.00064232      -0.01587695       0.00966000
Pt       5.61442779      -0.00000016      19.95723449        4      -0.00248436       0.00173234       0.02371715
Pt       1.40360720       2.43111835      19.95723435        4      -0.01408067       0.00736685       0.00966783
Pt       4.21082080       2.43111834      19.95723443        4       0.01343638       0.00851688       0.00971827
Pt       7.01803483       2.43111844      19.95723431        4      -0.00175155       0.00274577       0.01100014
Pt       2.80721405       4.86223724      19.95723403        4      -0.00024709      -0.00297896       0.02376919
Pt       5.61442805       4.86223734      19.95723421        4       0.00328692       0.00013138       0.01104475
Pt       8.42164144       4.86223725      19.95723437        4      -0.00153603      -0.00288266       0.01098678
Pt       1.40360728       0.81037258      22.29206792        3       0.05155696       0.03178702      -0.15754519
Pt       4.21082126       0.81037248      22.29206794        3      -0.05335341       0.02884253      -0.15749490
Pt       7.01803474       0.81037256      22.29206786        3      -0.00368474       0.01226339      -0.02591069
Pt       2.80721448       3.24149124      22.29206779        3       0.00178340      -0.06061882      -0.15754117
Pt       5.61442762       3.24149125      22.29206790        3      -0.01969046      -0.01314107      -0.06245644
Pt       8.42164155       3.24149130      22.29206809        3       0.02126479      -0.01056779      -0.06247166
Pt       4.21082091       5.67260997      22.29206801        3       0.01247376      -0.00294474      -0.02606248
Pt       7.01803488       5.67261037      22.29206781        3      -0.00156959       0.02370619      -0.06257442
Pt       9.82524819       5.67261065      22.29206808        3      -0.00878210      -0.00932339      -0.02602641
Pt      -0.00000056       1.62074567      24.58417371        2      -0.08744814       0.03870925       0.12688763
Pt       2.80721444       1.62074547      24.58417389        2      -0.00000561       0.00000399      -0.23093657
Pt       5.61442780       1.62074536      24.58417372        2       0.09283596       0.04241078       0.12934384
Pt       1.40360637       4.05186441      24.58417386        2      -0.08323060       0.05929318       0.12941878
Pt       4.21082088       4.05186402      24.58417378        2       0.07734636       0.05647331       0.12704377
Pt       7.01803505       4.05186404      24.58417403        2      -0.00000328       0.00000165       0.14669959
Pt       2.80721282       6.48298342      24.58417366        2       0.00001141      -0.00000756       0.00365584
Pt       5.61442796       6.48298327      24.58417384        2      -0.00960078      -0.10170578       0.12922779
Pt       8.42164224       6.48298339      24.58417376        2       0.01009654      -0.09518616       0.12689862
Pt      -0.00151457      -0.00047400      26.91395066        1      -0.00836165      -0.00320564      -0.01662430
Pt       2.80614935       0.02478908      26.89887681        1       0.00086999      -0.01390031      -0.00273536
Pt       5.61559515      -0.00107448      26.91394976        1       0.00695689      -0.00564104      -0.01662173
Pt       1.42560925       2.41964401      26.89887661        1      -0.01247739       0.00619935      -0.00273782
Pt       4.18988456       2.41779985      26.89887588        1       0.01160210       0.00770802      -0.00273596
Pt       7.01951763       2.41236592      27.01984480        1      -0.00252596       0.01112762      -0.00532053
Pt       2.80756035       4.86378429      26.91395041        1       0.00140743       0.00884510      -0.01662506
Pt       5.59744659       4.87032752      27.01984397        1       0.01089819      -0.00336721      -0.00532759
Pt       8.43714092       4.87289732      27.01984330        1      -0.00836929      -0.00775475      -0.00532611
O        7.01803582       4.05186766      29.55952736        0      -0.00000094      -0.00000466      -0.01316747
C        7.01803536       4.05186599      28.35899319        0       0.00000017      -0.00000177       0.00377854
