38
Lattice="8.421641763931781 0.0 0.0 4.2108208819658905 7.293355709136913 0.0 0.0 0.0 46.87624170604845" Properties=species:S:1:pos:R:3:tags:I:1:forces:R:3 charge=0 spin=0 energy=-202.8860282862257 free_energy=-202.8860282862257 stress="0.009942461736500263 -2.3047688202382233e-08 -2.343612526267691e-10 -2.3047688202382233e-08 0.009942475706338882 -1.6851361195335812e-08 -2.343612526267691e-10 -1.6851361195335812e-08 -0.00042283127550035715" pbc="T T T"
Pt      -0.00000000       0.00000021      19.95723433        4       0.00242261       0.00100184       0.02362782
Pt       2.80721396      -0.00000008      19.95723446        4       0.00068952      -0.01587875       0.00963672
Pt       5.61442779      -0.00000016      19.95723449        4      -0.00211864       0.00158379       0.02362184
Pt       1.40360720       2.43111835      19.95723435        4      -0.01410648       0.00732732       0.00964370
Pt       4.21082080       2.43111834      19.95723443        4       0.01341498       0.00855847       0.00969533
Pt       7.01803483       2.43111844      19.95723431        4      -0.00176402       0.00275166       0.01081227
Pt       2.80721405       4.86223724      19.95723403        4      -0.00030096      -0.00258802       0.02367271
Pt       5.61442805       4.86223734      19.95723421        4       0.00329850       0.00013882       0.01085650
Pt       8.42164144       4.86223725      19.95723437        4      -0.00153511      -0.00289574       0.01079747
Pt       1.40360728       0.81037258      22.29206792        3       0.05156998       0.03194924      -0.15864126
Pt       4.21082126       0.81037248      22.29206794        3      -0.05349700       0.02877242      -0.15859132
Pt       7.01803474       0.81037256      22.29206786        3      -0.00362749       0.01224530      -0.02483544
Pt       2.80721448       3.24149124      22.29206779        3       0.00191503      -0.06071146      -0.15863356
Pt       5.61442762       3.24149125      22.29206790        3      -0.01993249      -0.01328841      -0.06293522
Pt       8.42164155       3.24149130      22.29206809        3       0.02151060      -0.01070455      -0.06294861
Pt       4.21082091       5.67260997      22.29206801        3       0.01243029      -0.00298550      -0.02499031
Pt       7.01803488       5.67261037      22.29206781        3      -0.00157368       0.02399012      -0.06305806
Pt       9.82524819       5.67261065      22.29206808        3      -0.00879568      -0.00926520      -0.02495244
Pt      -0.00000056       1.62074567      24.58417371        2      -0.08557225       0.03871542       0.11624414
Pt       2.80721444       1.62074547      24.58417389        2      -0.00000942       0.00000578      -0.21476616
Pt       5.61442780       1.62074536      24.58417372        2       0.09023928       0.04206378       0.11794079
Pt       1.40360637       4.05186441      24.58417386        2      -0.08163104       0.05721926       0.11800867
Pt       4.21082088       4.05186402      24.58417378        2       0.07641270       0.05484212       0.11641526
Pt       7.01803505       4.05186404      24.58417403        2      -0.00000421       0.00000066       0.13543291
Pt       2.80721282       6.48298342      24.58417366        2       0.00001186      -0.00000566      -0.01609114
Pt       5.61442796       6.48298327      24.58417384        2      -0.00860659      -0.09928139       0.11782014
Pt       8.42164224       6.48298339      24.58417376        2       0.00915528      -0.09356117       0.11624635
Pt      -0.00356887      -0.00121309      26.90937877        1       0.00780040       0.00528522      -0.00032029
Pt       2.80620903       0.01810187      26.89737926        1       0.00095588       0.04052918      -0.00538501
Pt       5.61725985      -0.00248119      26.90937646        1      -0.00847066       0.00410801      -0.00031024
Pt       1.41978394       2.42293809      26.89738071        1       0.03462313      -0.02110039      -0.00539318
Pt       4.19564203       2.42119525      26.89738128        1      -0.03556038      -0.01941383      -0.00539322
Pt       7.01857844       2.41301823      27.01779489        1       0.00088500      -0.01630407      -0.01612196
Pt       2.80794591       4.86593359      26.90937604        1       0.00069192      -0.00939911      -0.00031556
Pt       5.59848453       4.87081555      27.01779291        1      -0.01458683       0.00738008      -0.01611820
Pt       8.43704647       4.87175976      27.01779330        1       0.01366875       0.00891309      -0.01610897
O        7.01803718       4.05186234      29.55135512        0       0.00000179       0.00000548       0.03785367
C        7.01803760       4.05186407      28.35093728        0      -0.00000478      -0.00000380       0.02758406
