38
Lattice="8.421641763931781 0.0 0.0 4.2108208819658905 7.293355709136913 0.0 0.0 0.0 46.87624170604845" Properties=species:S:1:pos:R:3:tags:I:1:forces:R:3 charge=0 spin=0 energy=-202.8860282862257 free_energy=-202.8860282862257 stress="0.009942459873855114 -2.2749995665094502e-08 7.895709086547242e-10 -2.2749995665094502e-08 0.00994246918708086 -1.7219683456914936e-08 7.895709086547242e-10 -1.7219683456914936e-08 -0.000422777229687199" pbc="T T T"
Pt      -0.00000000       0.00000021      19.95723433        4       0.00242260       0.00100209       0.02362782
Pt       2.80721396      -0.00000008      19.95723446        4       0.00068956      -0.01587882       0.00963661
Pt       5.61442779      -0.00000016      19.95723449        4      -0.00211847       0.00158386       0.02362167
Pt       1.40360720       2.43111835      19.95723435        4      -0.01410657       0.00732732       0.00964376
Pt       4.21082080       2.43111834      19.95723443        4       0.01341504       0.00855835       0.00969541
Pt       7.01803483       2.43111844      19.95723431        4      -0.00176401       0.00275158       0.01081227
Pt       2.80721405       4.86223724      19.95723403        4      -0.00030113      -0.00258793       0.02367258
Pt       5.61442805       4.86223734      19.95723421        4       0.00329868       0.00013857       0.01085650
Pt       8.42164144       4.86223725      19.95723437        4      -0.00153520      -0.00289585       0.01079760
Pt       1.40360728       0.81037258      22.29206792        3       0.05156996       0.03194911      -0.15864138
Pt       4.21082126       0.81037248      22.29206794        3      -0.05349703       0.02877242      -0.15859145
Pt       7.01803474       0.81037256      22.29206786        3      -0.00362741       0.01224515      -0.02483532
Pt       2.80721448       3.24149124      22.29206779        3       0.00191491      -0.06071141      -0.15863353
Pt       5.61442762       3.24149125      22.29206790        3      -0.01993219      -0.01328834      -0.06293540
Pt       8.42164155       3.24149130      22.29206809        3       0.02151069      -0.01070461      -0.06294877
Pt       4.21082091       5.67260997      22.29206801        3       0.01243037      -0.00298558      -0.02499039
Pt       7.01803488       5.67261037      22.29206781        3      -0.00157343       0.02399021      -0.06305764
Pt       9.82524819       5.67261065      22.29206808        3      -0.00879547      -0.00926530      -0.02495261
Pt      -0.00000056       1.62074567      24.58417371        2      -0.08557215       0.03871537       0.11624441
Pt       2.80721444       1.62074547      24.58417389        2      -0.00000957       0.00000588      -0.21476622
Pt       5.61442780       1.62074536      24.58417372        2       0.09023919       0.04206372       0.11794072
Pt       1.40360637       4.05186441      24.58417386        2      -0.08163065       0.05721895       0.11800899
Pt       4.21082088       4.05186402      24.58417378        2       0.07641242       0.05484197       0.11641510
Pt       7.01803505       4.05186404      24.58417403        2      -0.00000416       0.00000076       0.13543266
Pt       2.80721282       6.48298342      24.58417366        2       0.00001168      -0.00000501      -0.01609095
Pt       5.61442796       6.48298327      24.58417384        2      -0.00860679      -0.09928084       0.11782020
Pt       8.42164224       6.48298339      24.58417376        2       0.00915502      -0.09356122       0.11624520
Pt      -0.00356897      -0.00121331      26.90937888        1       0.00780029       0.00528586      -0.00032086
Pt       2.80620924       0.01810198      26.89737915        1       0.00095280       0.04052893      -0.00538510
Pt       5.61725958      -0.00248139      26.90937655        1      -0.00846669       0.00410875      -0.00031035
Pt       1.41978410       2.42293804      26.89738034        1       0.03462292      -0.02110071      -0.00539350
Pt       4.19564204       2.42119528      26.89738101        1      -0.03556104      -0.01941328      -0.00539309
Pt       7.01857850       2.41301827      27.01779513        1       0.00088505      -0.01630808      -0.01612391
Pt       2.80794601       4.86593366      26.90937587        1       0.00069173      -0.00940011      -0.00031541
Pt       5.59848442       4.87081563      27.01779280        1      -0.01459040       0.00738288      -0.01612014
Pt       8.43704633       4.87175978      27.01779363        1       0.01367148       0.00891389      -0.01611092
O        7.01803732       4.05186237      29.55135486        0       0.00000113       0.00000544       0.03771646
C        7.01803752       4.05186404      28.35093518        0      -0.00000333      -0.00000391       0.02772903
