38
Lattice="8.421641763931781 0.0 0.0 4.2108208819658905 7.293355709136913 0.0 0.0 0.0 46.87624170604845" Properties=species:S:1:pos:R:3:tags:I:1:forces:R:3 charge=0 spin=0 energy=-202.8864936792921 free_energy=-202.8864936792921 stress="0.00995821412652731 -1.986630415728996e-08 1.6841876782081044e-09 -1.986630415728996e-08 0.009958228096365929 -1.613194200444923e-08 1.6841876782081044e-09 -1.613194200444923e-08 -0.0003850614302791655" pbc="T T T"
Pt      -0.00000000       0.00000021      19.95723433        4       0.00273259       0.00118294       0.02365430
Pt       2.80721396      -0.00000008      19.95723446        4       0.00065008      -0.01597229       0.00951598
Pt       5.61442779      -0.00000016      19.95723449        4      -0.00243045       0.00176144       0.02364862
Pt       1.40360720       2.43111835      19.95723435        4      -0.01416726       0.00740805       0.00952406
Pt       4.21082080       2.43111834      19.95723443        4       0.01351537       0.00857124       0.00957502
Pt       7.01803483       2.43111844      19.95723431        4      -0.00177553       0.00278743       0.01090924
Pt       2.80721405       4.86223724      19.95723403        4      -0.00029911      -0.00294676       0.02369991
Pt       5.61442805       4.86223734      19.95723421        4       0.00333485       0.00013085       0.01095268
Pt       8.42164144       4.86223725      19.95723437        4      -0.00156036      -0.00292380       0.01089463
Pt       1.40360728       0.81037258      22.29206792        3       0.05184318       0.03213189      -0.15794978
Pt       4.21082126       0.81037248      22.29206794        3      -0.05379441       0.02891871      -0.15789764
Pt       7.01803474       0.81037256      22.29206786        3      -0.00373760       0.01227546      -0.02539111
Pt       2.80721448       3.24149124      22.29206779        3       0.00193805      -0.06104059      -0.15794250
Pt       5.61442762       3.24149125      22.29206790        3      -0.01995559      -0.01328143      -0.06214022
Pt       8.42164155       3.24149130      22.29206809        3       0.02151806      -0.01072879      -0.06215645
Pt       4.21082091       5.67260997      22.29206801        3       0.01251080      -0.00290449      -0.02554410
Pt       7.01803488       5.67261037      22.29206781        3      -0.00155745       0.02400636      -0.06226211
Pt       9.82524819       5.67261065      22.29206808        3      -0.00876570      -0.00937472      -0.02550665
Pt      -0.00000056       1.62074567      24.58417371        2      -0.08973815       0.04043477       0.11567311
Pt       2.80721444       1.62074547      24.58417389        2      -0.00000431       0.00001198      -0.24438898
Pt       5.61442780       1.62074536      24.58417372        2       0.09446350       0.04357505       0.11799619
Pt       1.40360637       4.05186441      24.58417386        2      -0.08504651       0.06012934       0.11807401
Pt       4.21082088       4.05186402      24.58417378        2       0.07998117       0.05759355       0.11584736
Pt       7.01803505       4.05186404      24.58417403        2      -0.00000441       0.00000126       0.13881263
Pt       2.80721282       6.48298342      24.58417366        2       0.00000983      -0.00001380      -0.01335648
Pt       5.61442796       6.48298327      24.58417384        2      -0.00941394      -0.10370402       0.11787104
Pt       8.42164224       6.48298339      24.58417376        2       0.00975194      -0.09803327       0.11568178
Pt      -0.00232753      -0.00010614      26.90916678        1      -0.00384787      -0.00303634      -0.00074349
Pt       2.80626056       0.02371143      26.89509254        1       0.00060444      -0.00789086       0.01007338
Pt       5.61568011      -0.00196048      26.90916631        1       0.00455820      -0.00181778      -0.00074192
Pt       1.42461675       2.42008760      26.89509818        1      -0.00712970       0.00342354       0.01005353
Pt       4.19075967       2.41843848      26.89510229        1       0.00653969       0.00446474       0.01004355
Pt       7.01849809       2.41339183      27.01825813        1       0.00056148       0.00282620      -0.00013435
Pt       2.80828855       4.86430127      26.90917378        1      -0.00071685       0.00485833      -0.00076641
Pt       5.59884555       4.87069671      27.01825811        1       0.00216484      -0.00189376      -0.00013289
Pt       8.43676215       4.87150228      27.01825702        1      -0.00272993      -0.00093128      -0.00012834
O        7.01803875       4.05186365      29.55867692        0      -0.00000076       0.00000203      -0.00923887
C        7.01803769       4.05186415      28.35819775        0      -0.00000241      -0.00000136       0.00392138
