38
Lattice="8.421641763931781 0.0 0.0 4.2108208819658905 7.293355709136913 0.0 0.0 0.0 46.87624170604845" Properties=species:S:1:pos:R:3:tags:I:1:forces:R:3 charge=0 spin=0 energy=-202.88632011056652 free_energy=-202.88632011056652 stress="0.010008856654167175 -1.8623703468279018e-08 -1.2533610260767603e-10 -1.8623703468279018e-08 0.01000887993723154 -1.1436099178752102e-08 -1.2533610260767603e-10 -1.1436099178752102e-08 -0.00029505728161893785" pbc="T T T"
Pt      -0.00000000       0.00000021      19.95723433        4       0.00273413       0.00124478       0.02372324
Pt       2.80721396      -0.00000008      19.95723446        4       0.00064232      -0.01587687       0.00965994
Pt       5.61442779      -0.00000016      19.95723449        4      -0.00248444       0.00173216       0.02371694
Pt       1.40360720       2.43111835      19.95723435        4      -0.01408063       0.00736692       0.00966783
Pt       4.21082080       2.43111834      19.95723443        4       0.01343621       0.00851671       0.00971863
Pt       7.01803483       2.43111844      19.95723431        4      -0.00175157       0.00274569       0.01100035
Pt       2.80721405       4.86223724      19.95723403        4      -0.00024693      -0.00297902       0.02376925
Pt       5.61442805       4.86223734      19.95723421        4       0.00328677       0.00013138       0.01104482
Pt       8.42164144       4.86223725      19.95723437        4      -0.00153603      -0.00288258       0.01098680
Pt       1.40360728       0.81037258      22.29206792        3       0.05155702       0.03178698      -0.15754519
Pt       4.21082126       0.81037248      22.29206794        3      -0.05335311       0.02884275      -0.15749480
Pt       7.01803474       0.81037256      22.29206786        3      -0.00368480       0.01226360      -0.02591070
Pt       2.80721448       3.24149124      22.29206779        3       0.00178326      -0.06061900      -0.15754078
Pt       5.61442762       3.24149125      22.29206790        3      -0.01969004      -0.01314085      -0.06245602
Pt       8.42164155       3.24149130      22.29206809        3       0.02126461      -0.01056754      -0.06247180
Pt       4.21082091       5.67260997      22.29206801        3       0.01247390      -0.00294488      -0.02606248
Pt       7.01803488       5.67261037      22.29206781        3      -0.00156957       0.02370605      -0.06257436
Pt       9.82524819       5.67261065      22.29206808        3      -0.00878220      -0.00932345      -0.02602656
Pt      -0.00000056       1.62074567      24.58417371        2      -0.08744849       0.03870940       0.12688886
Pt       2.80721444       1.62074547      24.58417389        2      -0.00000594       0.00000396      -0.23093665
Pt       5.61442780       1.62074536      24.58417372        2       0.09283684       0.04241114       0.12934569
Pt       1.40360637       4.05186441      24.58417386        2      -0.08322992       0.05929282       0.12941836
Pt       4.21082088       4.05186402      24.58417378        2       0.07734626       0.05647311       0.12704436
Pt       7.01803505       4.05186404      24.58417403        2      -0.00000309       0.00000086       0.14670165
Pt       2.80721282       6.48298342      24.58417366        2       0.00001145      -0.00000696       0.00365534
Pt       5.61442796       6.48298327      24.58417384        2      -0.00960095      -0.10170560       0.12922774
Pt       8.42164224       6.48298339      24.58417376        2       0.01009656      -0.09518568       0.12689829
Pt      -0.00151488      -0.00047412      26.91395031        1      -0.00836176      -0.00320534      -0.01662409
Pt       2.80614932       0.02478895      26.89887673        1       0.00087120      -0.01389958      -0.00273600
Pt       5.61559522      -0.00107473      26.91394977        1       0.00695789      -0.00563876      -0.01662135
Pt       1.42560912       2.41964412      26.89887658        1      -0.01247653       0.00619981      -0.00273772
Pt       4.18988444       2.41779994      26.89887594        1       0.01160316       0.00770807      -0.00273653
Pt       7.01951770       2.41236587      27.01984535        1      -0.00252851       0.01112281      -0.00533160
Pt       2.80756039       4.86378464      26.91395042        1       0.00140833       0.00884312      -0.01662476
Pt       5.59744643       4.87032762      27.01984394        1       0.01089829      -0.00336612      -0.00532959
Pt       8.43714112       4.87289754      27.01984321        1      -0.00837354      -0.00775563      -0.00532718
O        7.01803576       4.05186747      29.55952726        0      -0.00000040      -0.00000205      -0.01330155
C        7.01803544       4.05186605      28.35899068        0       0.00000041      -0.00000235       0.00392161
