38
Lattice="8.421641763931781 0.0 0.0 4.2108208819658905 7.293355709136913 0.0 0.0 0.0 46.87624170604845" Properties=species:S:1:pos:R:3:tags:I:1:forces:R:3 charge=0 spin=0 energy=-202.88632106424083 free_energy=-202.88632106424083 stress="0.010008862242102623 -2.08041939231407e-08 9.38274236084169e-10 -2.08041939231407e-08 0.010008876211941242 -9.813392765067874e-09 9.38274236084169e-10 -9.813392765067874e-09 -0.00029499398078769445" pbc="T T T"
Pt      -0.00000000       0.00000021      19.95723433        4       0.00273404       0.00124486       0.02372303
Pt       2.80721396      -0.00000008      19.95723446        4       0.00064237      -0.01587681       0.00966000
Pt       5.61442779      -0.00000016      19.95723449        4      -0.00248443       0.00173244       0.02371709
Pt       1.40360720       2.43111835      19.95723435        4      -0.01408058       0.00736681       0.00966762
Pt       4.21082080       2.43111834      19.95723443        4       0.01343629       0.00851665       0.00971838
Pt       7.01803483       2.43111844      19.95723431        4      -0.00175162       0.00274581       0.01100014
Pt       2.80721405       4.86223724      19.95723403        4      -0.00024711      -0.00297913       0.02376908
Pt       5.61442805       4.86223734      19.95723421        4       0.00328680       0.00013122       0.01104469
Pt       8.42164144       4.86223725      19.95723437        4      -0.00153584      -0.00288278       0.01098678
Pt       1.40360728       0.81037258      22.29206792        3       0.05155689       0.03178706      -0.15754563
Pt       4.21082126       0.81037248      22.29206794        3      -0.05335306       0.02884278      -0.15749469
Pt       7.01803474       0.81037256      22.29206786        3      -0.00368489       0.01226323      -0.02591032
Pt       2.80721448       3.24149124      22.29206779        3       0.00178325      -0.06061879      -0.15754138
Pt       5.61442762       3.24149125      22.29206790        3      -0.01969031      -0.01314074      -0.06245666
Pt       8.42164155       3.24149130      22.29206809        3       0.02126455      -0.01056717      -0.06247189
Pt       4.21082091       5.67260997      22.29206801        3       0.01247391      -0.00294473      -0.02606242
Pt       7.01803488       5.67261037      22.29206781        3      -0.00156954       0.02370618      -0.06257438
Pt       9.82524819       5.67261065      22.29206808        3      -0.00878209      -0.00932321      -0.02602609
Pt      -0.00000056       1.62074567      24.58417371        2      -0.08744855       0.03870973       0.12688939
Pt       2.80721444       1.62074547      24.58417389        2      -0.00000600       0.00000405      -0.23093651
Pt       5.61442780       1.62074536      24.58417372        2       0.09283670       0.04241133       0.12934650
Pt       1.40360637       4.05186441      24.58417386        2      -0.08323044       0.05929288       0.12941889
Pt       4.21082088       4.05186402      24.58417378        2       0.07734638       0.05647288       0.12704484
Pt       7.01803505       4.05186404      24.58417403        2      -0.00000322       0.00000057       0.14670104
Pt       2.80721282       6.48298342      24.58417366        2       0.00001123      -0.00000743       0.00365367
Pt       5.61442796       6.48298327      24.58417384        2      -0.00960097      -0.10170528       0.12922755
Pt       8.42164224       6.48298339      24.58417376        2       0.01009647      -0.09518577       0.12689810
Pt      -0.00151508      -0.00047456      26.91395032        1      -0.00835715      -0.00320209      -0.01662307
Pt       2.80614931       0.02478908      26.89887699        1       0.00086906      -0.01389873      -0.00273562
Pt       5.61559556      -0.00107489      26.91394973        1       0.00695539      -0.00563626      -0.01662054
Pt       1.42560918       2.41964411      26.89887669        1      -0.01247737       0.00619918      -0.00273835
Pt       4.18988442       2.41779995      26.89887612        1       0.01160440       0.00770819      -0.00273644
Pt       7.01951779       2.41236595      27.01984624        1      -0.00252904       0.01112467      -0.00532829
Pt       2.80756038       4.86378513      26.91395035        1       0.00140699       0.00884007      -0.01662504
Pt       5.59744631       4.87032778      27.01984444        1       0.01089789      -0.00336971      -0.00532492
Pt       8.43714090       4.87289742      27.01984393        1      -0.00836921      -0.00775709      -0.00532409
O        7.01803583       4.05186759      29.55952804        0      -0.00000129      -0.00000248      -0.01345165
C        7.01803547       4.05186594      28.35899119        0      -0.00000005      -0.00000246       0.00406123
