38
Lattice="8.421641763931781 0.0 0.0 4.2108208819658905 7.293355709136913 0.0 0.0 0.0 46.87624170604845" Properties=species:S:1:pos:R:3:tags:I:1:forces:R:3 charge=0 spin=0 energy=-202.88602637887706 free_energy=-202.88602637887706 stress="0.00994245894253254 -2.203344529050355e-08 1.4960564731492099e-10 -2.203344529050355e-08 0.00994246918708086 -1.7332213886334102e-08 1.4960564731492099e-10 -1.7332213886334102e-08 -0.0004227753961458802" pbc="T T T"
Pt      -0.00000000       0.00000021      19.95723433        4       0.00242257       0.00100204       0.02362784
Pt       2.80721396      -0.00000008      19.95723446        4       0.00068962      -0.01587858       0.00963670
Pt       5.61442779      -0.00000016      19.95723449        4      -0.00211855       0.00158394       0.02362175
Pt       1.40360720       2.43111835      19.95723435        4      -0.01410665       0.00732735       0.00964372
Pt       4.21082080       2.43111834      19.95723443        4       0.01341497       0.00855819       0.00969535
Pt       7.01803483       2.43111844      19.95723431        4      -0.00176385       0.00275140       0.01081229
Pt       2.80721405       4.86223724      19.95723403        4      -0.00030095      -0.00258802       0.02367273
Pt       5.61442805       4.86223734      19.95723421        4       0.00329856       0.00013874       0.01085665
Pt       8.42164144       4.86223725      19.95723437        4      -0.00153521      -0.00289579       0.01079764
Pt       1.40360728       0.81037258      22.29206792        3       0.05156994       0.03194904      -0.15864135
Pt       4.21082126       0.81037248      22.29206794        3      -0.05349698       0.02877228      -0.15859118
Pt       7.01803474       0.81037256      22.29206786        3      -0.00362718       0.01224517      -0.02483521
Pt       2.80721448       3.24149124      22.29206779        3       0.00191508      -0.06071141      -0.15863337
Pt       5.61442762       3.24149125      22.29206790        3      -0.01993215      -0.01328846      -0.06293558
Pt       8.42164155       3.24149130      22.29206809        3       0.02151058      -0.01070448      -0.06294879
Pt       4.21082091       5.67260997      22.29206801        3       0.01243040      -0.00298552      -0.02499059
Pt       7.01803488       5.67261037      22.29206781        3      -0.00157331       0.02398979      -0.06305736
Pt       9.82524819       5.67261065      22.29206808        3      -0.00879552      -0.00926554      -0.02495268
Pt      -0.00000056       1.62074567      24.58417371        2      -0.08557191       0.03871542       0.11624440
Pt       2.80721444       1.62074547      24.58417389        2      -0.00000959       0.00000627      -0.21476807
Pt       5.61442780       1.62074536      24.58417372        2       0.09023876       0.04206382       0.11794062
Pt       1.40360637       4.05186441      24.58417386        2      -0.08163066       0.05721893       0.11800934
Pt       4.21082088       4.05186402      24.58417378        2       0.07641242       0.05484200       0.11641522
Pt       7.01803505       4.05186404      24.58417403        2      -0.00000420       0.00000044       0.13543299
Pt       2.80721282       6.48298342      24.58417366        2       0.00001169      -0.00000514      -0.01609078
Pt       5.61442796       6.48298327      24.58417384        2      -0.00860684      -0.09928107       0.11782018
Pt       8.42164224       6.48298339      24.58417376        2       0.00915480      -0.09356102       0.11624587
Pt      -0.00356876      -0.00121327      26.90937881        1       0.00779961       0.00528537      -0.00032061
Pt       2.80620920       0.01810235      26.89737914        1       0.00095470       0.04052564      -0.00538444
Pt       5.61725953      -0.00248109      26.90937657        1      -0.00846678       0.00410888      -0.00031060
Pt       1.41978434       2.42293786      26.89738024        1       0.03461950      -0.02109840      -0.00539409
Pt       4.19564172       2.42119502      26.89738111        1      -0.03555786      -0.01941145      -0.00539271
Pt       7.01857847       2.41301810      27.01779517        1       0.00088451      -0.01630608      -0.01612449
Pt       2.80794609       4.86593369      26.90937595        1       0.00069106      -0.00940019      -0.00031548
Pt       5.59848442       4.87081555      27.01779331        1      -0.01458978       0.00738101      -0.01611993
Pt       8.43704639       4.87175971      27.01779367        1       0.01367180       0.00891376      -0.01611110
O        7.01803718       4.05186238      29.55135516        0       0.00000110       0.00000564       0.03771666
C        7.01803752       4.05186408      28.35093511        0      -0.00000365      -0.00000411       0.02772841
