38
Lattice="8.421641763931781 0.0 0.0 4.2108208819658905 7.293355709136913 0.0 0.0 0.0 46.87624170604845" Properties=species:S:1:pos:R:3:tags:I:1:forces:R:3 charge=0 spin=0 energy=-202.88632106424083 free_energy=-202.88632106424083 stress="0.010008866898715496 -1.8942682089573282e-08 -2.2558150902796115e-09 -1.8942682089573282e-08 0.010008889250457287 -1.0524604299178009e-08 -2.2558150902796115e-09 -1.0524604299178009e-08 -0.0002951058268081397" pbc="T T T"
Pt      -0.00000000       0.00000021      19.95723433        4       0.00273417       0.00124490       0.02372313
Pt       2.80721396      -0.00000008      19.95723446        4       0.00064227      -0.01587685       0.00965983
Pt       5.61442779      -0.00000016      19.95723449        4      -0.00248436       0.00173229       0.02371700
Pt       1.40360720       2.43111835      19.95723435        4      -0.01408070       0.00736703       0.00966772
Pt       4.21082080       2.43111834      19.95723443        4       0.01343635       0.00851686       0.00971838
Pt       7.01803483       2.43111844      19.95723431        4      -0.00175151       0.00274565       0.01100005
Pt       2.80721405       4.86223724      19.95723403        4      -0.00024712      -0.00297913       0.02376910
Pt       5.61442805       4.86223734      19.95723421        4       0.00328678       0.00013138       0.01104456
Pt       8.42164144       4.86223725      19.95723437        4      -0.00153598      -0.00288273       0.01098665
Pt       1.40360728       0.81037258      22.29206792        3       0.05155681       0.03178683      -0.15754510
Pt       4.21082126       0.81037248      22.29206794        3      -0.05335332       0.02884264      -0.15749454
Pt       7.01803474       0.81037256      22.29206786        3      -0.00368475       0.01226364      -0.02591103
Pt       2.80721448       3.24149124      22.29206779        3       0.00178318      -0.06061884      -0.15754041
Pt       5.61442762       3.24149125      22.29206790        3      -0.01969061      -0.01314117      -0.06245647
Pt       8.42164155       3.24149130      22.29206809        3       0.02126453      -0.01056737      -0.06247281
Pt       4.21082091       5.67260997      22.29206801        3       0.01247368      -0.00294464      -0.02606244
Pt       7.01803488       5.67261037      22.29206781        3      -0.00156932       0.02370608      -0.06257497
Pt       9.82524819       5.67261065      22.29206808        3      -0.00878220      -0.00932351      -0.02602682
Pt      -0.00000056       1.62074567      24.58417371        2      -0.08744793       0.03870810       0.12689000
Pt       2.80721444       1.62074547      24.58417389        2      -0.00000575       0.00000428      -0.23093756
Pt       5.61442780       1.62074536      24.58417372        2       0.09283604       0.04241084       0.12934445
Pt       1.40360637       4.05186441      24.58417386        2      -0.08322839       0.05929296       0.12941948
Pt       4.21082088       4.05186402      24.58417378        2       0.07734536       0.05647415       0.12704587
Pt       7.01803505       4.05186404      24.58417403        2      -0.00000399       0.00000101       0.14669897
Pt       2.80721282       6.48298342      24.58417366        2       0.00001297      -0.00000773       0.00365886
Pt       5.61442796       6.48298327      24.58417384        2      -0.00960217      -0.10170519       0.12923035
Pt       8.42164224       6.48298339      24.58417376        2       0.01009632      -0.09518467       0.12689698
Pt      -0.00151484      -0.00047416      26.91395098        1      -0.00836160      -0.00320670      -0.01662919
Pt       2.80614925       0.02478924      26.89887714        1       0.00086856      -0.01390257      -0.00273530
Pt       5.61559547      -0.00107455      26.91395063        1       0.00695858      -0.00563990      -0.01662167
Pt       1.42560942       2.41964399      26.89887681        1      -0.01248098       0.00620185      -0.00273797
Pt       4.18988423       2.41779974      26.89887625        1       0.01160568       0.00771047      -0.00273536
Pt       7.01951764       2.41236578      27.01984438        1      -0.00252503       0.01113091      -0.00531923
Pt       2.80756052       4.86378456      26.91395109        1       0.00140859       0.00884348      -0.01663015
Pt       5.59744663       4.87032750      27.01984357        1       0.01089840      -0.00336762      -0.00532679
Pt       8.43714070       4.87289747      27.01984297        1      -0.00837375      -0.00776059      -0.00531618
O        7.01803587       4.05186769      29.55952695        0       0.00000132      -0.00000370      -0.01317328
C        7.01803532       4.05186603      28.35899390        0      -0.00000020      -0.00000225       0.00377592
