38
Lattice="8.421641763931781 0.0 0.0 4.2108208819658905 7.293355709136913 0.0 0.0 0.0 46.87624170604845" Properties=species:S:1:pos:R:3:tags:I:1:forces:R:3 charge=0 spin=0 energy=-202.88649463296642 free_energy=-202.88649463296642 stress="0.00995820015668869 -2.1604401823083208e-08 2.5560293881454754e-09 -2.1604401823083208e-08 0.009958218783140182 -1.4578088958216995e-08 2.5560293881454754e-09 -1.4578088958216995e-08 -0.0003850772918667644" pbc="T T T"
Pt      -0.00000000       0.00000021      19.95723433        4       0.00273259       0.00118293       0.02365432
Pt       2.80721396      -0.00000008      19.95723446        4       0.00065006      -0.01597220       0.00951596
Pt       5.61442779      -0.00000016      19.95723449        4      -0.00243042       0.00176126       0.02364868
Pt       1.40360720       2.43111835      19.95723435        4      -0.01416722       0.00740800       0.00952408
Pt       4.21082080       2.43111834      19.95723443        4       0.01351531       0.00857141       0.00957497
Pt       7.01803483       2.43111844      19.95723431        4      -0.00177538       0.00278732       0.01090911
Pt       2.80721405       4.86223724      19.95723403        4      -0.00029906      -0.00294660       0.02369976
Pt       5.61442805       4.86223734      19.95723421        4       0.00333480       0.00013088       0.01095262
Pt       8.42164144       4.86223725      19.95723437        4      -0.00156035      -0.00292376       0.01089469
Pt       1.40360728       0.81037258      22.29206792        3       0.05184328       0.03213169      -0.15794986
Pt       4.21082126       0.81037248      22.29206794        3      -0.05379459       0.02891863      -0.15789805
Pt       7.01803474       0.81037256      22.29206786        3      -0.00373757       0.01227549      -0.02539111
Pt       2.80721448       3.24149124      22.29206779        3       0.00193815      -0.06104048      -0.15794227
Pt       5.61442762       3.24149125      22.29206790        3      -0.01995543      -0.01328154      -0.06214034
Pt       8.42164155       3.24149130      22.29206809        3       0.02151794      -0.01072881      -0.06215655
Pt       4.21082091       5.67260997      22.29206801        3       0.01251072      -0.00290448      -0.02554411
Pt       7.01803488       5.67261037      22.29206781        3      -0.00155730       0.02400636      -0.06226218
Pt       9.82524819       5.67261065      22.29206808        3      -0.00876566      -0.00937472      -0.02550661
Pt      -0.00000056       1.62074567      24.58417371        2      -0.08973718       0.04043425       0.11567166
Pt       2.80721444       1.62074547      24.58417389        2      -0.00000428       0.00001163      -0.24438921
Pt       5.61442780       1.62074536      24.58417372        2       0.09446246       0.04357437       0.11799453
Pt       1.40360637       4.05186441      24.58417386        2      -0.08504588       0.06012930       0.11807316
Pt       4.21082088       4.05186402      24.58417378        2       0.07998080       0.05759347       0.11584686
Pt       7.01803505       4.05186404      24.58417403        2      -0.00000446       0.00000220       0.13881058
Pt       2.80721282       6.48298342      24.58417366        2       0.00000980      -0.00001392      -0.01335666
Pt       5.61442796       6.48298327      24.58417384        2      -0.00941397      -0.10370323       0.11787034
Pt       8.42164224       6.48298339      24.58417376        2       0.00975175      -0.09803279       0.11568125
Pt      -0.00232742      -0.00010631      26.90916678        1      -0.00384766      -0.00303648      -0.00074330
Pt       2.80626060       0.02371129      26.89509217        1       0.00060374      -0.00788952       0.01007359
Pt       5.61568011      -0.00196061      26.90916683        1       0.00455807      -0.00181828      -0.00074207
Pt       1.42461655       2.42008769      26.89509795        1      -0.00712774       0.00342311       0.01005326
Pt       4.19075975       2.41843851      26.89510161        1       0.00653803       0.00446507       0.01004344
Pt       7.01849818       2.41339209      27.01825768        1       0.00056106       0.00282285      -0.00013036
Pt       2.80828850       4.86430100      26.90917368        1      -0.00071604       0.00485834      -0.00076683
Pt       5.59884532       4.87069688      27.01825819        1       0.00216002      -0.00189325      -0.00013672
Pt       8.43676210       4.87150218      27.01825702        1      -0.00272503      -0.00092811      -0.00013314
O        7.01803917       4.05186369      29.55867558        0      -0.00000146      -0.00000010      -0.00923116
C        7.01803757       4.05186413      28.35819584        0      -0.00000217      -0.00000037       0.00392768
