38
Lattice="8.421641763931781 0.0 0.0 4.2108208819658905 7.293355709136913 0.0 0.0 0.0 46.87624170604845" Properties=species:S:1:pos:R:3:tags:I:1:forces:R:3 charge=0 spin=0 energy=-202.8860292399 free_energy=-202.8860292399 stress="0.009942460805177689 -2.3185084074839324e-08 6.907639460429493e-10 -2.3185084074839324e-08 0.009942467324435711 -1.6494427157454083e-08 6.907639460429493e-10 -1.6494427157454083e-08 -0.0004227769677527249" pbc="T T T"
Pt      -0.00000000       0.00000021      19.95723433        4       0.00242273       0.00100206       0.02362782
Pt       2.80721396      -0.00000008      19.95723446        4       0.00068953      -0.01587883       0.00963670
Pt       5.61442779      -0.00000016      19.95723449        4      -0.00211857       0.00158383       0.02362161
Pt       1.40360720       2.43111835      19.95723435        4      -0.01410665       0.00732725       0.00964382
Pt       4.21082080       2.43111834      19.95723443        4       0.01341490       0.00855836       0.00969535
Pt       7.01803483       2.43111844      19.95723431        4      -0.00176386       0.00275140       0.01081218
Pt       2.80721405       4.86223724      19.95723403        4      -0.00030094      -0.00258809       0.02367277
Pt       5.61442805       4.86223734      19.95723421        4       0.00329856       0.00013888       0.01085652
Pt       8.42164144       4.86223725      19.95723437        4      -0.00153520      -0.00289576       0.01079743
Pt       1.40360728       0.81037258      22.29206792        3       0.05156994       0.03194917      -0.15864126
Pt       4.21082126       0.81037248      22.29206794        3      -0.05349697       0.02877236      -0.15859136
Pt       7.01803474       0.81037256      22.29206786        3      -0.00362747       0.01224517      -0.02483522
Pt       2.80721448       3.24149124      22.29206779        3       0.00191500      -0.06071147      -0.15863362
Pt       5.61442762       3.24149125      22.29206790        3      -0.01993240      -0.01328848      -0.06293552
Pt       8.42164155       3.24149130      22.29206809        3       0.02151054      -0.01070461      -0.06294870
Pt       4.21082091       5.67260997      22.29206801        3       0.01243030      -0.00298545      -0.02499033
Pt       7.01803488       5.67261037      22.29206781        3      -0.00157364       0.02399000      -0.06305818
Pt       9.82524819       5.67261065      22.29206808        3      -0.00879562      -0.00926530      -0.02495262
Pt      -0.00000056       1.62074567      24.58417371        2      -0.08557198       0.03871531       0.11624400
Pt       2.80721444       1.62074547      24.58417389        2      -0.00000932       0.00000605      -0.21476667
Pt       5.61442780       1.62074536      24.58417372        2       0.09023911       0.04206371       0.11794084
Pt       1.40360637       4.05186441      24.58417386        2      -0.08163055       0.05721916       0.11800896
Pt       4.21082088       4.05186402      24.58417378        2       0.07641247       0.05484195       0.11641508
Pt       7.01803505       4.05186404      24.58417403        2      -0.00000410       0.00000071       0.13543266
Pt       2.80721282       6.48298342      24.58417366        2       0.00001182      -0.00000523      -0.01609168
Pt       5.61442796       6.48298327      24.58417384        2      -0.00860653      -0.09928101       0.11782013
Pt       8.42164224       6.48298339      24.58417376        2       0.00915494      -0.09356067       0.11624673
Pt      -0.00356918      -0.00121329      26.90937883        1       0.00780071       0.00528551      -0.00032027
Pt       2.80620910       0.01810217      26.89737928        1       0.00095597       0.04052804      -0.00538538
Pt       5.61725979      -0.00248134      26.90937652        1      -0.00847148       0.00410880      -0.00031022
Pt       1.41978412       2.42293801      26.89738020        1       0.03462330      -0.02110034      -0.00539343
Pt       4.19564183       2.42119518      26.89738097        1      -0.03556072      -0.01941371      -0.00539324
Pt       7.01857848       2.41301819      27.01779559        1       0.00088483      -0.01630744      -0.01612356
Pt       2.80794617       4.86593367      26.90937595        1       0.00069194      -0.00940070      -0.00031525
Pt       5.59848451       4.87081552      27.01779329        1      -0.01458946       0.00738236      -0.01611993
Pt       8.43704634       4.87175979      27.01779399        1       0.01367189       0.00891515      -0.01611072
O        7.01803728       4.05186236      29.55135468        0       0.00000177       0.00000552       0.03771576
C        7.01803756       4.05186402      28.35093585        0      -0.00000500      -0.00000384       0.02772878
