38
Lattice="8.421641763931781 0.0 0.0 4.2108208819658905 7.293355709136913 0.0 0.0 0.0 46.87624170604845" Properties=species:S:1:pos:R:3:tags:I:1:forces:R:3 charge=0 spin=0 energy=-202.88563155771007 free_energy=-202.88563155771007 stress="0.010025995783507824 -1.7708654098669285e-08 1.730640630803748e-10 -1.7708654098669285e-08 0.010026016272604465 -1.1931425625277825e-08 1.730640630803748e-10 -1.1931425625277825e-08 -0.0002533351653255522" pbc="T T T"
Pt      -0.00000000       0.00000021      19.95723433        4       0.00252660       0.00111534       0.02364811
Pt       2.80721396      -0.00000008      19.95723446        4       0.00065132      -0.01594397       0.00972716
Pt       5.61442779      -0.00000016      19.95723449        4      -0.00226782       0.00161849       0.02364192
Pt       1.40360720       2.43111835      19.95723435        4      -0.01414415       0.00739385       0.00973435
Pt       4.21082080       2.43111834      19.95723443        4       0.01349084       0.00855711       0.00978462
Pt       7.01803483       2.43111844      19.95723431        4      -0.00174661       0.00237205       0.01089560
Pt       2.80721405       4.86223724      19.95723403        4      -0.00025573      -0.00273612       0.02369472
Pt       5.61442805       4.86223734      19.95723421        4       0.00296008       0.00031290       0.01094189
Pt       8.42164144       4.86223725      19.95723437        4      -0.00121416      -0.00269050       0.01088379
Pt       1.40360728       0.81037258      22.29206792        3       0.05145992       0.03163120      -0.15736796
Pt       4.21082126       0.81037248      22.29206794        3      -0.05316612       0.02883737      -0.15732138
Pt       7.01803474       0.81037256      22.29206786        3      -0.00361932       0.01245985      -0.02476823
Pt       2.80721448       3.24149124      22.29206779        3       0.00169422      -0.06045828      -0.15735653
Pt       5.61442762       3.24149125      22.29206790        3      -0.01967999      -0.01315330      -0.06404661
Pt       8.42164155       3.24149130      22.29206809        3       0.02126759      -0.01055483      -0.06406030
Pt       4.21082091       5.67260997      22.29206801        3       0.01261122      -0.00309949      -0.02491173
Pt       7.01803488       5.67261037      22.29206781        3      -0.00158136       0.02370431      -0.06416412
Pt       9.82524819       5.67261065      22.29206808        3      -0.00898401      -0.00936521      -0.02487726
Pt      -0.00000056       1.62074567      24.58417371        2      -0.08191262       0.03571015       0.12799135
Pt       2.80721444       1.62074547      24.58417389        2      -0.00000908       0.00000462      -0.20295934
Pt       5.61442780       1.62074536      24.58417372        2       0.08756210       0.03952231       0.13047907
Pt       1.40360637       4.05186441      24.58417386        2      -0.07808921       0.05617249       0.13055907
Pt       4.21082088       4.05186402      24.58417378        2       0.07198142       0.05318315       0.12816142
Pt       7.01803505       4.05186404      24.58417403        2      -0.00000585       0.00000585       0.13736571
Pt       2.80721282       6.48298342      24.58417366        2       0.00001454      -0.00001210      -0.01224902
Pt       5.61442796       6.48298327      24.58417384        2      -0.00946910      -0.09569477       0.13038208
Pt       8.42164224       6.48298339      24.58417376        2       0.00992338      -0.08889476       0.12799603
Pt      -0.00726452      -0.00349388      26.91493077        1       0.02979430       0.01753575      -0.01561535
Pt       2.80583366       0.01999358      26.90097436        1       0.00158296       0.03069384      -0.01857868
Pt       5.62108288      -0.00453975      26.91492451        1      -0.03008642       0.01700852      -0.01559349
Pt       1.42160932       2.42231457      26.90097388        1       0.02580318      -0.01671689      -0.01858070
Pt       4.19419340       2.41992666      26.90097189        1      -0.02737706      -0.01396215      -0.01857306
Pt       7.01951995       2.41247975      27.01582055        1      -0.00245917       0.02900136       0.02585655
Pt       2.80781669       4.87027434      26.91493410        1       0.00031838      -0.03457654      -0.01562846
Pt       5.59754708       4.87026825      27.01582945        1       0.02631153      -0.01235623       0.02581914
Pt       8.43704171       4.87284217      27.01582542        1      -0.02388187      -0.01662553       0.02583982
O        7.01803870       4.05186117      29.56202474        0       0.00000315      -0.00000498      -0.03920643
C        7.01803880       4.05186156      28.36171536        0      -0.00000671       0.00000481      -0.02754354
