38
Lattice="8.421641763931781 0.0 0.0 4.2108208819658905 7.293355709136913 0.0 0.0 0.0 46.87624170604845" Properties=species:S:1:pos:R:3:tags:I:1:forces:R:3 charge=0 spin=0 energy=-202.88632106424083 free_energy=-202.88632106424083 stress="0.010008876211941242 -2.1323627308333926e-08 9.107066212266091e-10 -2.1323627308333926e-08 0.010008887387812138 -1.1291130697088647e-08 9.107066212266091e-10 -1.1291130697088647e-08 -0.0002950987545773387" pbc="T T T"
Pt      -0.00000000       0.00000021      19.95723433        4       0.00273412       0.00124491       0.02372303
Pt       2.80721396      -0.00000008      19.95723446        4       0.00064239      -0.01587694       0.00965985
Pt       5.61442779      -0.00000016      19.95723449        4      -0.00248438       0.00173252       0.02371703
Pt       1.40360720       2.43111835      19.95723435        4      -0.01408082       0.00736682       0.00966772
Pt       4.21082080       2.43111834      19.95723443        4       0.01343633       0.00851674       0.00971840
Pt       7.01803483       2.43111844      19.95723431        4      -0.00175158       0.00274576       0.01100012
Pt       2.80721405       4.86223724      19.95723403        4      -0.00024717      -0.00297904       0.02376904
Pt       5.61442805       4.86223734      19.95723421        4       0.00328690       0.00013130       0.01104460
Pt       8.42164144       4.86223725      19.95723437        4      -0.00153609      -0.00288266       0.01098680
Pt       1.40360728       0.81037258      22.29206792        3       0.05155673       0.03178691      -0.15754543
Pt       4.21082126       0.81037248      22.29206794        3      -0.05335334       0.02884245      -0.15749499
Pt       7.01803474       0.81037256      22.29206786        3      -0.00368487       0.01226334      -0.02591051
Pt       2.80721448       3.24149124      22.29206779        3       0.00178334      -0.06061897      -0.15754133
Pt       5.61442762       3.24149125      22.29206790        3      -0.01969064      -0.01314115      -0.06245586
Pt       8.42164155       3.24149130      22.29206809        3       0.02126499      -0.01056794      -0.06247187
Pt       4.21082091       5.67260997      22.29206801        3       0.01247382      -0.00294468      -0.02606237
Pt       7.01803488       5.67261037      22.29206781        3      -0.00156950       0.02370643      -0.06257464
Pt       9.82524819       5.67261065      22.29206808        3      -0.00878224      -0.00932334      -0.02602632
Pt      -0.00000056       1.62074567      24.58417371        2      -0.08744914       0.03871021       0.12689006
Pt       2.80721444       1.62074547      24.58417389        2      -0.00000566       0.00000396      -0.23093712
Pt       5.61442780       1.62074536      24.58417372        2       0.09283750       0.04241193       0.12934701
Pt       1.40360637       4.05186441      24.58417386        2      -0.08323077       0.05929307       0.12941900
Pt       4.21082088       4.05186402      24.58417378        2       0.07734719       0.05647347       0.12704475
Pt       7.01803505       4.05186404      24.58417403        2      -0.00000326       0.00000053       0.14670140
Pt       2.80721282       6.48298342      24.58417366        2       0.00001154      -0.00000732       0.00365582
Pt       5.61442796       6.48298327      24.58417384        2      -0.00960109      -0.10170635       0.12922816
Pt       8.42164224       6.48298339      24.58417376        2       0.01009661      -0.09518644       0.12689894
Pt      -0.00151423      -0.00047407      26.91395087        1      -0.00836214      -0.00320493      -0.01662436
Pt       2.80614927       0.02478907      26.89887708        1       0.00087007      -0.01390065      -0.00273526
Pt       5.61559478      -0.00107439      26.91395042        1       0.00695760      -0.00563983      -0.01662188
Pt       1.42560935       2.41964394      26.89887670        1      -0.01247961       0.00620063      -0.00273793
Pt       4.18988427       2.41779978      26.89887603        1       0.01160617       0.00770909      -0.00273553
Pt       7.01951774       2.41236625      27.01984513        1      -0.00252745       0.01112677      -0.00532494
Pt       2.80756058       4.86378408      26.91395052        1       0.00140801       0.00884463      -0.01662540
Pt       5.59744696       4.87032757      27.01984368        1       0.01089897      -0.00336876      -0.00532318
Pt       8.43714025       4.87289712      27.01984324        1      -0.00837230      -0.00775664      -0.00532208
O        7.01803587       4.05186753      29.55952824        0      -0.00000106      -0.00000281      -0.01317561
C        7.01803545       4.05186604      28.35899464        0       0.00000063      -0.00000304       0.00377474
