38
Lattice="8.421641763931781 0.0 0.0 4.2108208819658905 7.293355709136913 0.0 0.0 0.0 46.87624170604845" Properties=species:S:1:pos:R:3:tags:I:1:forces:R:3 charge=0 spin=0 energy=-202.8860292399 free_energy=-202.8860292399 stress="0.009942455217242241 -2.3224322021064836e-08 6.632079330159968e-10 -2.3224322021064836e-08 0.009942463599145412 -1.7532256535446322e-08 6.632079330159968e-10 -1.7532256535446322e-08 -0.00042277813190594316" pbc="T T T"
Pt      -0.00000000       0.00000021      19.95723433        4       0.00242262       0.00100204       0.02362786
Pt       2.80721396      -0.00000008      19.95723446        4       0.00068949      -0.01587868       0.00963668
Pt       5.61442779      -0.00000016      19.95723449        4      -0.00211848       0.00158387       0.02362156
Pt       1.40360720       2.43111835      19.95723435        4      -0.01410652       0.00732728       0.00964370
Pt       4.21082080       2.43111834      19.95723443        4       0.01341494       0.00855841       0.00969554
Pt       7.01803483       2.43111844      19.95723431        4      -0.00176394       0.00275152       0.01081233
Pt       2.80721405       4.86223724      19.95723403        4      -0.00030101      -0.00258810       0.02367269
Pt       5.61442805       4.86223734      19.95723421        4       0.00329861       0.00013877       0.01085639
Pt       8.42164144       4.86223725      19.95723437        4      -0.00153511      -0.00289592       0.01079749
Pt       1.40360728       0.81037258      22.29206792        3       0.05157004       0.03194914      -0.15864135
Pt       4.21082126       0.81037248      22.29206794        3      -0.05349708       0.02877225      -0.15859146
Pt       7.01803474       0.81037256      22.29206786        3      -0.00362747       0.01224514      -0.02483532
Pt       2.80721448       3.24149124      22.29206779        3       0.00191492      -0.06071146      -0.15863352
Pt       5.61442762       3.24149125      22.29206790        3      -0.01993240      -0.01328841      -0.06293532
Pt       8.42164155       3.24149130      22.29206809        3       0.02151059      -0.01070456      -0.06294876
Pt       4.21082091       5.67260997      22.29206801        3       0.01243025      -0.00298553      -0.02499023
Pt       7.01803488       5.67261037      22.29206781        3      -0.00157366       0.02399009      -0.06305817
Pt       9.82524819       5.67261065      22.29206808        3      -0.00879568      -0.00926522      -0.02495249
Pt      -0.00000056       1.62074567      24.58417371        2      -0.08557191       0.03871535       0.11624414
Pt       2.80721444       1.62074547      24.58417389        2      -0.00000940       0.00000596      -0.21476661
Pt       5.61442780       1.62074536      24.58417372        2       0.09023906       0.04206369       0.11794055
Pt       1.40360637       4.05186441      24.58417386        2      -0.08163066       0.05721907       0.11800892
Pt       4.21082088       4.05186402      24.58417378        2       0.07641245       0.05484205       0.11641514
Pt       7.01803505       4.05186404      24.58417403        2      -0.00000407       0.00000077       0.13543229
Pt       2.80721282       6.48298342      24.58417366        2       0.00001197      -0.00000525      -0.01609178
Pt       5.61442796       6.48298327      24.58417384        2      -0.00860668      -0.09928119       0.11782040
Pt       8.42164224       6.48298339      24.58417376        2       0.00915526      -0.09356094       0.11624599
Pt      -0.00356903      -0.00121316      26.90937886        1       0.00780193       0.00528493      -0.00032061
Pt       2.80620925       0.01810219      26.89737930        1       0.00095371       0.04052759      -0.00538499
Pt       5.61725989      -0.00248113      26.90937668        1      -0.00847094       0.00410854      -0.00030999
Pt       1.41978411       2.42293804      26.89738085        1       0.03462316      -0.02110046      -0.00539337
Pt       4.19564198       2.42119535      26.89738115        1      -0.03556124      -0.01941369      -0.00539307
Pt       7.01857846       2.41301828      27.01779496        1       0.00088563      -0.01630903      -0.01612387
Pt       2.80794611       4.86593371      26.90937595        1       0.00069208      -0.00940073      -0.00031537
Pt       5.59848464       4.87081538      27.01779283        1      -0.01459076       0.00738554      -0.01612057
Pt       8.43704599       4.87175974      27.01779339        1       0.01367165       0.00891445      -0.01611097
O        7.01803724       4.05186237      29.55135441        0       0.00000127       0.00000482       0.03771660
C        7.01803753       4.05186377      28.35093461        0      -0.00000291      -0.00000209       0.02772948
