38
Lattice="8.421641763931781 0.0 0.0 4.2108208819658905 7.293355709136913 0.0 0.0 0.0 46.87624170604845" Properties=species:S:1:pos:R:3:tags:I:1:forces:R:3 charge=0 spin=0 energy=-202.88632106424083 free_energy=-202.88632106424083 stress="0.010008877143263817 -2.0043053439167124e-08 -1.0359971769346998e-09 -2.0043053439167124e-08 0.01000889390707016 -1.0623470103610089e-08 -1.0359971769346998e-09 -1.0623470103610089e-08 -0.0002950887428596616" pbc="T T T"
Pt      -0.00000000       0.00000021      19.95723433        4       0.00273425       0.00124476       0.02372307
Pt       2.80721396      -0.00000008      19.95723446        4       0.00064221      -0.01587680       0.00965985
Pt       5.61442779      -0.00000016      19.95723449        4      -0.00248445       0.00173220       0.02371711
Pt       1.40360720       2.43111835      19.95723435        4      -0.01408082       0.00736687       0.00966778
Pt       4.21082080       2.43111834      19.95723443        4       0.01343628       0.00851686       0.00971836
Pt       7.01803483       2.43111844      19.95723431        4      -0.00175148       0.00274575       0.01100010
Pt       2.80721405       4.86223724      19.95723403        4      -0.00024683      -0.00297913       0.02376906
Pt       5.61442805       4.86223734      19.95723421        4       0.00328665       0.00013131       0.01104484
Pt       8.42164144       4.86223725      19.95723437        4      -0.00153597      -0.00288271       0.01098670
Pt       1.40360728       0.81037258      22.29206792        3       0.05155676       0.03178687      -0.15754515
Pt       4.21082126       0.81037248      22.29206794        3      -0.05335321       0.02884261      -0.15749457
Pt       7.01803474       0.81037256      22.29206786        3      -0.00368484       0.01226332      -0.02591050
Pt       2.80721448       3.24149124      22.29206779        3       0.00178312      -0.06061877      -0.15754110
Pt       5.61442762       3.24149125      22.29206790        3      -0.01969060      -0.01314102      -0.06245592
Pt       8.42164155       3.24149130      22.29206809        3       0.02126508      -0.01056742      -0.06247259
Pt       4.21082091       5.67260997      22.29206801        3       0.01247393      -0.00294468      -0.02606225
Pt       7.01803488       5.67261037      22.29206781        3      -0.00156929       0.02370602      -0.06257482
Pt       9.82524819       5.67261065      22.29206808        3      -0.00878214      -0.00932320      -0.02602638
Pt      -0.00000056       1.62074567      24.58417371        2      -0.08744815       0.03870821       0.12689039
Pt       2.80721444       1.62074547      24.58417389        2      -0.00000581       0.00000214      -0.23093490
Pt       5.61442780       1.62074536      24.58417372        2       0.09283625       0.04241102       0.12934510
Pt       1.40360637       4.05186441      24.58417386        2      -0.08322950       0.05929246       0.12941721
Pt       4.21082088       4.05186402      24.58417378        2       0.07734701       0.05647365       0.12704480
Pt       7.01803505       4.05186404      24.58417403        2      -0.00000415       0.00000117       0.14669877
Pt       2.80721282       6.48298342      24.58417366        2       0.00001303      -0.00000665       0.00365763
Pt       5.61442796       6.48298327      24.58417384        2      -0.00960111      -0.10170470       0.12923206
Pt       8.42164224       6.48298339      24.58417376        2       0.01009508      -0.09518424       0.12689939
Pt      -0.00151462      -0.00047414      26.91395094        1      -0.00836090      -0.00320578      -0.01662943
Pt       2.80614928       0.02478932      26.89887718        1       0.00086973      -0.01390244      -0.00274276
Pt       5.61559528      -0.00107450      26.91395053        1       0.00695735      -0.00564005      -0.01662209
Pt       1.42560937       2.41964399      26.89887674        1      -0.01247894       0.00619960      -0.00273808
Pt       4.18988430       2.41779976      26.89887607        1       0.01160497       0.00770884      -0.00273564
Pt       7.01951758       2.41236620      27.01984481        1      -0.00252527       0.01113129      -0.00531474
Pt       2.80756036       4.86378446      26.91395085        1       0.00140830       0.00884530      -0.01662534
Pt       5.59744689       4.87032731      27.01984371        1       0.01089984      -0.00336720      -0.00532176
Pt       8.43714031       4.87289729      27.01984291        1      -0.00837742      -0.00775891      -0.00531206
O        7.01803596       4.05186740      29.55952860        0       0.00000105      -0.00000405      -0.01318379
C        7.01803546       4.05186594      28.35899481        0      -0.00000008      -0.00000249       0.00377164
