38
Lattice="8.421641763931781 0.0 0.0 4.2108208819658905 7.293355709136913 0.0 0.0 0.0 46.87624170604845" Properties=species:S:1:pos:R:3:tags:I:1:forces:R:3 charge=0 spin=0 energy=-202.88563155771007 free_energy=-202.88563155771007 stress="0.010025979951024055 -1.7424081732997365e-08 3.550821192632725e-09 -1.7424081732997365e-08 0.010026004165410995 -1.2187713060995975e-08 3.550821192632725e-09 -1.2187713060995975e-08 -0.0002533505030442029" pbc="T T T"
Pt      -0.00000000       0.00000021      19.95723433        4       0.00252678       0.00111551       0.02364820
Pt       2.80721396      -0.00000008      19.95723446        4       0.00065112      -0.01594386       0.00972703
Pt       5.61442779      -0.00000016      19.95723449        4      -0.00226796       0.00161875       0.02364196
Pt       1.40360720       2.43111835      19.95723435        4      -0.01414429       0.00739387       0.00973437
Pt       4.21082080       2.43111834      19.95723443        4       0.01349082       0.00855712       0.00978473
Pt       7.01803483       2.43111844      19.95723431        4      -0.00174640       0.00237180       0.01089560
Pt       2.80721405       4.86223724      19.95723403        4      -0.00025590      -0.00273626       0.02369470
Pt       5.61442805       4.86223734      19.95723421        4       0.00296001       0.00031305       0.01094208
Pt       8.42164144       4.86223725      19.95723437        4      -0.00121407      -0.00269055       0.01088373
Pt       1.40360728       0.81037258      22.29206792        3       0.05146025       0.03163143      -0.15736797
Pt       4.21082126       0.81037248      22.29206794        3      -0.05316567       0.02883731      -0.15732136
Pt       7.01803474       0.81037256      22.29206786        3      -0.00361923       0.01246000      -0.02476835
Pt       2.80721448       3.24149124      22.29206779        3       0.00169411      -0.06045836      -0.15735684
Pt       5.61442762       3.24149125      22.29206790        3      -0.01968015      -0.01315317      -0.06404688
Pt       8.42164155       3.24149130      22.29206809        3       0.02126779      -0.01055486      -0.06406064
Pt       4.21082091       5.67260997      22.29206801        3       0.01261136      -0.00309949      -0.02491169
Pt       7.01803488       5.67261037      22.29206781        3      -0.00158135       0.02370379      -0.06416423
Pt       9.82524819       5.67261065      22.29206808        3      -0.00898394      -0.00936518      -0.02487735
Pt      -0.00000056       1.62074567      24.58417371        2      -0.08191096       0.03570931       0.12798916
Pt       2.80721444       1.62074547      24.58417389        2      -0.00000904       0.00000471      -0.20295805
Pt       5.61442780       1.62074536      24.58417372        2       0.08756014       0.03952138       0.13047785
Pt       1.40360637       4.05186441      24.58417386        2      -0.07808892       0.05617220       0.13055925
Pt       4.21082088       4.05186402      24.58417378        2       0.07198093       0.05318315       0.12816139
Pt       7.01803505       4.05186404      24.58417403        2      -0.00000576       0.00000667       0.13736354
Pt       2.80721282       6.48298342      24.58417366        2       0.00001473      -0.00001262      -0.01225137
Pt       5.61442796       6.48298327      24.58417384        2      -0.00946932      -0.09569418       0.13038157
Pt       8.42164224       6.48298339      24.58417376        2       0.00992380      -0.08889406       0.12799548
Pt      -0.00726486      -0.00349412      26.91493088        1       0.02980055       0.01753606      -0.01561410
Pt       2.80583363       0.01999292      26.90097463        1       0.00158278       0.03070017      -0.01857927
Pt       5.62108326      -0.00454001      26.91492457        1      -0.03009275       0.01701052      -0.01559243
Pt       1.42160872       2.42231488      26.90097417        1       0.02580851      -0.01671948      -0.01858131
Pt       4.19419401       2.41992695      26.90097218        1      -0.02738262      -0.01396457      -0.01857429
Pt       7.01951983       2.41247976      27.01582030        1      -0.00245917       0.02899835       0.02585955
Pt       2.80781667       4.87027480      26.91493423        1       0.00031842      -0.03458042      -0.01562797
Pt       5.59754717       4.87026829      27.01582919        1       0.02630561      -0.01235348       0.02581445
Pt       8.43704173       4.87284226      27.01582511        1      -0.02387672      -0.01662295       0.02583541
O        7.01803868       4.05186120      29.56202268        0       0.00000326      -0.00000747      -0.03919796
C        7.01803877       4.05186155      28.36171332        0      -0.00000684       0.00000583      -0.02753804
