38
Lattice="8.421641763931781 0.0 0.0 4.2108208819658905 7.293355709136913 0.0 0.0 0.0 46.87624170604845" Properties=species:S:1:pos:R:3:tags:I:1:forces:R:3 charge=0 spin=0 energy=-202.88602637887706 free_energy=-202.88602637887706 stress="0.009942464530467987 -2.3099124391023906e-08 -1.0101864900136093e-09 -2.3099124391023906e-08 0.009942476637661457 -1.747533850959826e-08 -1.0101864900136093e-09 -1.747533850959826e-08 -0.0004228317702654749" pbc="T T T"
Pt      -0.00000000       0.00000021      19.95723433        4       0.00242246       0.00100206       0.02362775
Pt       2.80721396      -0.00000008      19.95723446        4       0.00068955      -0.01587868       0.00963666
Pt       5.61442779      -0.00000016      19.95723449        4      -0.00211847       0.00158386       0.02362178
Pt       1.40360720       2.43111835      19.95723435        4      -0.01410659       0.00732721       0.00964387
Pt       4.21082080       2.43111834      19.95723443        4       0.01341489       0.00855836       0.00969539
Pt       7.01803483       2.43111844      19.95723431        4      -0.00176379       0.00275160       0.01081227
Pt       2.80721405       4.86223724      19.95723403        4      -0.00030115      -0.00258792       0.02367260
Pt       5.61442805       4.86223734      19.95723421        4       0.00329870       0.00013863       0.01085650
Pt       8.42164144       4.86223725      19.95723437        4      -0.00153524      -0.00289580       0.01079770
Pt       1.40360728       0.81037258      22.29206792        3       0.05157004       0.03194929      -0.15864131
Pt       4.21082126       0.81037248      22.29206794        3      -0.05349715       0.02877235      -0.15859140
Pt       7.01803474       0.81037256      22.29206786        3      -0.00362736       0.01224526      -0.02483526
Pt       2.80721448       3.24149124      22.29206779        3       0.00191492      -0.06071149      -0.15863359
Pt       5.61442762       3.24149125      22.29206790        3      -0.01993231      -0.01328837      -0.06293533
Pt       8.42164155       3.24149130      22.29206809        3       0.02151067      -0.01070449      -0.06294855
Pt       4.21082091       5.67260997      22.29206801        3       0.01243038      -0.00298543      -0.02499042
Pt       7.01803488       5.67261037      22.29206781        3      -0.00157337       0.02399029      -0.06305753
Pt       9.82524819       5.67261065      22.29206808        3      -0.00879562      -0.00926523      -0.02495256
Pt      -0.00000056       1.62074567      24.58417371        2      -0.08557245       0.03871544       0.11624444
Pt       2.80721444       1.62074547      24.58417389        2      -0.00000942       0.00000609      -0.21476600
Pt       5.61442780       1.62074536      24.58417372        2       0.09023959       0.04206350       0.11794041
Pt       1.40360637       4.05186441      24.58417386        2      -0.08163101       0.05721908       0.11800887
Pt       4.21082088       4.05186402      24.58417378        2       0.07641260       0.05484222       0.11641543
Pt       7.01803505       4.05186404      24.58417403        2      -0.00000404       0.00000049       0.13543259
Pt       2.80721282       6.48298342      24.58417366        2       0.00001178      -0.00000538      -0.01609010
Pt       5.61442796       6.48298327      24.58417384        2      -0.00860690      -0.09928149       0.11782031
Pt       8.42164224       6.48298339      24.58417376        2       0.00915503      -0.09356138       0.11624563
Pt      -0.00356898      -0.00121326      26.90937882        1       0.00779939       0.00528478      -0.00032076
Pt       2.80620919       0.01810183      26.89737924        1       0.00095470       0.04052919      -0.00538491
Pt       5.61725964      -0.00248111      26.90937662        1      -0.00846641       0.00410823      -0.00031062
Pt       1.41978391       2.42293818      26.89738032        1       0.03462343      -0.02110027      -0.00539341
Pt       4.19564223       2.42119531      26.89738097        1      -0.03556341      -0.01941396      -0.00539335
Pt       7.01857844       2.41301815      27.01779498        1       0.00088625      -0.01630572      -0.01612222
Pt       2.80794604       4.86593359      26.90937606        1       0.00069173      -0.00939896      -0.00031590
Pt       5.59848455       4.87081544      27.01779313        1      -0.01458796       0.00738309      -0.01611832
Pt       8.43704636       4.87175978      27.01779354        1       0.01366873       0.00891230      -0.01610924
O        7.01803721       4.05186238      29.55135477        0       0.00000109       0.00000554       0.03785393
C        7.01803753       4.05186400      28.35093652        0      -0.00000327      -0.00000417       0.02758493
