38
Lattice="8.421641763931781 0.0 0.0 4.2108208819658905 7.293355709136913 0.0 0.0 0.0 46.87624170604845" Properties=species:S:1:pos:R:3:tags:I:1:forces:R:3 charge=0 spin=0 energy=-202.88632297158946 free_energy=-202.88632297158946 stress="0.010008862242102623 -1.8247648725377985e-08 1.8524831668642605e-09 -1.8247648725377985e-08 0.010008886456489563 -1.157172846433241e-08 1.8524831668642605e-09 -1.157172846433241e-08 -0.000295042380457744" pbc="T T T"
Pt      -0.00000000       0.00000021      19.95723433        4       0.00273409       0.00124481       0.02372309
Pt       2.80721396      -0.00000008      19.95723446        4       0.00064235      -0.01587679       0.00965990
Pt       5.61442779      -0.00000016      19.95723449        4      -0.00248452       0.00173222       0.02371717
Pt       1.40360720       2.43111835      19.95723435        4      -0.01408075       0.00736689       0.00966768
Pt       4.21082080       2.43111834      19.95723443        4       0.01343618       0.00851671       0.00971815
Pt       7.01803483       2.43111844      19.95723431        4      -0.00175148       0.00274564       0.01100012
Pt       2.80721405       4.86223724      19.95723403        4      -0.00024702      -0.00297912       0.02376917
Pt       5.61442805       4.86223734      19.95723421        4       0.00328671       0.00013143       0.01104463
Pt       8.42164144       4.86223725      19.95723437        4      -0.00153602      -0.00288246       0.01098655
Pt       1.40360728       0.81037258      22.29206792        3       0.05155676       0.03178681      -0.15754482
Pt       4.21082126       0.81037248      22.29206794        3      -0.05335272       0.02884257      -0.15749492
Pt       7.01803474       0.81037256      22.29206786        3      -0.00368441       0.01226359      -0.02591045
Pt       2.80721448       3.24149124      22.29206779        3       0.00178342      -0.06061867      -0.15754057
Pt       5.61442762       3.24149125      22.29206790        3      -0.01968994      -0.01314106      -0.06245740
Pt       8.42164155       3.24149130      22.29206809        3       0.02126498      -0.01056789      -0.06247330
Pt       4.21082091       5.67260997      22.29206801        3       0.01247418      -0.00294466      -0.02606267
Pt       7.01803488       5.67261037      22.29206781        3      -0.00156944       0.02370586      -0.06257577
Pt       9.82524819       5.67261065      22.29206808        3      -0.00878211      -0.00932277      -0.02602644
Pt      -0.00000056       1.62074567      24.58417371        2      -0.08744610       0.03870796       0.12689172
Pt       2.80721444       1.62074547      24.58417389        2      -0.00000701       0.00000284      -0.23093164
Pt       5.61442780       1.62074536      24.58417372        2       0.09283532       0.04240913       0.12934713
Pt       1.40360637       4.05186441      24.58417386        2      -0.08322811       0.05929149       0.12942129
Pt       4.21082088       4.05186402      24.58417378        2       0.07734400       0.05647295       0.12704466
Pt       7.01803505       4.05186404      24.58417403        2      -0.00000344       0.00000061       0.14669709
Pt       2.80721282       6.48298342      24.58417366        2       0.00001142      -0.00000741       0.00365842
Pt       5.61442796       6.48298327      24.58417384        2      -0.00960111      -0.10170242       0.12923060
Pt       8.42164224       6.48298339      24.58417376        2       0.01009638      -0.09518270       0.12690119
Pt      -0.00151544      -0.00047451      26.91395157        1      -0.00835622      -0.00320282      -0.01662922
Pt       2.80614924       0.02478935      26.89887759        1       0.00087082      -0.01390043      -0.00274374
Pt       5.61559590      -0.00107488      26.91395104        1       0.00695240      -0.00563775      -0.01662593
Pt       1.42560954       2.41964389      26.89887717        1      -0.01247807       0.00619900      -0.00274425
Pt       4.18988420       2.41779963      26.89887642        1       0.01160378       0.00770789      -0.00273668
Pt       7.01951787       2.41236582      27.01984430        1      -0.00252780       0.01112541      -0.00532104
Pt       2.80756047       4.86378518      26.91395135        1       0.00140621       0.00884003      -0.01662941
Pt       5.59744644       4.87032765      27.01984303        1       0.01089872      -0.00336783      -0.00531886
Pt       8.43714058       4.87289731      27.01984271        1      -0.00837023      -0.00775424      -0.00531830
O        7.01803587       4.05186762      29.55952719        0      -0.00000080      -0.00000265      -0.01331266
C        7.01803555       4.05186592      28.35899202        0      -0.00000038      -0.00000221       0.00391950
