38
Lattice="8.421641763931781 0.0 0.0 4.2108208819658905 7.293355709136913 0.0 0.0 0.0 46.87624170604845" Properties=species:S:1:pos:R:3:tags:I:1:forces:R:3 charge=0 spin=0 energy=-202.8864936792921 free_energy=-202.8864936792921 stress="0.009958209469914436 -2.013085342866816e-08 2.122149123096051e-09 -2.013085342866816e-08 0.009958221577107906 -1.799084081710589e-08 2.122149123096051e-09 -1.799084081710589e-08 -0.00038507222780026495" pbc="T T T"
Pt      -0.00000000       0.00000021      19.95723433        4       0.00273263       0.00118292       0.02365430
Pt       2.80721396      -0.00000008      19.95723446        4       0.00065010      -0.01597212       0.00951605
Pt       5.61442779      -0.00000016      19.95723449        4      -0.00243055       0.00176145       0.02364854
Pt       1.40360720       2.43111835      19.95723435        4      -0.01416728       0.00740806       0.00952396
Pt       4.21082080       2.43111834      19.95723443        4       0.01351541       0.00857124       0.00957487
Pt       7.01803483       2.43111844      19.95723431        4      -0.00177539       0.00278728       0.01090900
Pt       2.80721405       4.86223724      19.95723403        4      -0.00029900      -0.00294677       0.02369994
Pt       5.61442805       4.86223734      19.95723421        4       0.00333478       0.00013092       0.01095258
Pt       8.42164144       4.86223725      19.95723437        4      -0.00156028      -0.00292377       0.01089458
Pt       1.40360728       0.81037258      22.29206792        3       0.05184342       0.03213157      -0.15795000
Pt       4.21082126       0.81037248      22.29206794        3      -0.05379450       0.02891848      -0.15789804
Pt       7.01803474       0.81037256      22.29206786        3      -0.00373747       0.01227541      -0.02539088
Pt       2.80721448       3.24149124      22.29206779        3       0.00193826      -0.06104055      -0.15794240
Pt       5.61442762       3.24149125      22.29206790        3      -0.01995552      -0.01328146      -0.06214024
Pt       8.42164155       3.24149130      22.29206809        3       0.02151800      -0.01072872      -0.06215682
Pt       4.21082091       5.67260997      22.29206801        3       0.01251081      -0.00290446      -0.02554406
Pt       7.01803488       5.67261037      22.29206781        3      -0.00155759       0.02400598      -0.06226218
Pt       9.82524819       5.67261065      22.29206808        3      -0.00876591      -0.00937483      -0.02550642
Pt      -0.00000056       1.62074567      24.58417371        2      -0.08973768       0.04043473       0.11567356
Pt       2.80721444       1.62074547      24.58417389        2      -0.00000441       0.00001173      -0.24438818
Pt       5.61442780       1.62074536      24.58417372        2       0.09446291       0.04357526       0.11799626
Pt       1.40360637       4.05186441      24.58417386        2      -0.08504622       0.06012909       0.11807349
Pt       4.21082088       4.05186402      24.58417378        2       0.07998107       0.05759304       0.11584697
Pt       7.01803505       4.05186404      24.58417403        2      -0.00000463       0.00000115       0.13881281
Pt       2.80721282       6.48298342      24.58417366        2       0.00000978      -0.00001417      -0.01335812
Pt       5.61442796       6.48298327      24.58417384        2      -0.00941391      -0.10370293       0.11787092
Pt       8.42164224       6.48298339      24.58417376        2       0.00975195      -0.09803253       0.11568215
Pt      -0.00232772      -0.00010654      26.90916671        1      -0.00384107      -0.00303342      -0.00074230
Pt       2.80626062       0.02371133      26.89509228        1       0.00060399      -0.00788994       0.01007217
Pt       5.61568056      -0.00196071      26.90916682        1       0.00455258      -0.00181799      -0.00074135
Pt       1.42461651       2.42008779      26.89509821        1      -0.00712781       0.00342117       0.01005260
Pt       4.19075985       2.41843847      26.89510160        1       0.00653827       0.00446407       0.01004266
Pt       7.01849818       2.41339149      27.01825826        1       0.00055930       0.00282429      -0.00013925
Pt       2.80828844       4.86430142      26.90917353        1      -0.00071794       0.00485681      -0.00076584
Pt       5.59884498       4.87069706      27.01825912        1       0.00216395      -0.00189461      -0.00013669
Pt       8.43676227       4.87150241      27.01825768        1      -0.00272629      -0.00092753      -0.00013426
O        7.01803913       4.05186375      29.55867619        0      -0.00000257       0.00000188      -0.00922788
C        7.01803755       4.05186413      28.35819665        0      -0.00000110      -0.00000083       0.00392724
