38
Lattice="8.421641763931781 0.0 0.0 4.2108208819658905 7.293355709136913 0.0 0.0 0.0 46.87624170604845" Properties=species:S:1:pos:R:3:tags:I:1:forces:R:3 charge=0 spin=0 energy=-202.8860282862257 free_energy=-202.8860282862257 stress="0.009942461736500263 -2.451830383165543e-08 -1.4242842460987504e-09 -2.451830383165543e-08 0.009942473843693733 -1.8620653463585768e-08 -1.4242842460987504e-09 -1.8620653463585768e-08 -0.0004228299076203257" pbc="T T T"
Pt      -0.00000000       0.00000021      19.95723433        4       0.00242268       0.00100195       0.02362780
Pt       2.80721396      -0.00000008      19.95723446        4       0.00068951      -0.01587865       0.00963661
Pt       5.61442779      -0.00000016      19.95723449        4      -0.00211846       0.00158394       0.02362167
Pt       1.40360720       2.43111835      19.95723435        4      -0.01410651       0.00732729       0.00964374
Pt       4.21082080       2.43111834      19.95723443        4       0.01341501       0.00855838       0.00969522
Pt       7.01803483       2.43111844      19.95723431        4      -0.00176397       0.00275152       0.01081225
Pt       2.80721405       4.86223724      19.95723403        4      -0.00030102      -0.00258794       0.02367269
Pt       5.61442805       4.86223734      19.95723421        4       0.00329847       0.00013879       0.01085646
Pt       8.42164144       4.86223725      19.95723437        4      -0.00153508      -0.00289587       0.01079753
Pt       1.40360728       0.81037258      22.29206792        3       0.05156983       0.03194923      -0.15864110
Pt       4.21082126       0.81037248      22.29206794        3      -0.05349723       0.02877234      -0.15859181
Pt       7.01803474       0.81037256      22.29206786        3      -0.00362750       0.01224537      -0.02483535
Pt       2.80721448       3.24149124      22.29206779        3       0.00191502      -0.06071145      -0.15863346
Pt       5.61442762       3.24149125      22.29206790        3      -0.01993250      -0.01328847      -0.06293517
Pt       8.42164155       3.24149130      22.29206809        3       0.02151052      -0.01070462      -0.06294865
Pt       4.21082091       5.67260997      22.29206801        3       0.01243017      -0.00298544      -0.02499031
Pt       7.01803488       5.67261037      22.29206781        3      -0.00157384       0.02399001      -0.06305809
Pt       9.82524819       5.67261065      22.29206808        3      -0.00879543      -0.00926530      -0.02495253
Pt      -0.00000056       1.62074567      24.58417371        2      -0.08557218       0.03871545       0.11624402
Pt       2.80721444       1.62074547      24.58417389        2      -0.00000941       0.00000572      -0.21476620
Pt       5.61442780       1.62074536      24.58417372        2       0.09023921       0.04206394       0.11794101
Pt       1.40360637       4.05186441      24.58417386        2      -0.08163106       0.05721919       0.11800856
Pt       4.21082088       4.05186402      24.58417378        2       0.07641271       0.05484222       0.11641518
Pt       7.01803505       4.05186404      24.58417403        2      -0.00000407       0.00000056       0.13543284
Pt       2.80721282       6.48298342      24.58417366        2       0.00001194      -0.00000576      -0.01609101
Pt       5.61442796       6.48298327      24.58417384        2      -0.00860653      -0.09928107       0.11782037
Pt       8.42164224       6.48298339      24.58417376        2       0.00915507      -0.09356100       0.11624705
Pt      -0.00356901      -0.00121319      26.90937881        1       0.00780055       0.00528514      -0.00032055
Pt       2.80620907       0.01810197      26.89737922        1       0.00095616       0.04052776      -0.00538546
Pt       5.61726001      -0.00248135      26.90937643        1      -0.00847081       0.00410805      -0.00031039
Pt       1.41978403       2.42293802      26.89738063        1       0.03462241      -0.02110071      -0.00539299
Pt       4.19564196       2.42119527      26.89738119        1      -0.03556024      -0.01941390      -0.00539314
Pt       7.01857848       2.41301835      27.01779541        1       0.00088497      -0.01630606      -0.01612258
Pt       2.80794608       4.86593365      26.90937603        1       0.00069241      -0.00939817      -0.00031548
Pt       5.59848453       4.87081559      27.01779334        1      -0.01458698       0.00738108      -0.01611858
Pt       8.43704600       4.87175977      27.01779359        1       0.01366934       0.00891429      -0.01610919
O        7.01803722       4.05186234      29.55135461        0       0.00000181       0.00000590       0.03785390
C        7.01803762       4.05186404      28.35093682        0      -0.00000489      -0.00000345       0.02758506
