38
Lattice="8.421641763931781 0.0 0.0 4.2108208819658905 7.293355709136913 0.0 0.0 0.0 46.87624170604845" Properties=species:S:1:pos:R:3:tags:I:1:forces:R:3 charge=0 spin=0 energy=-202.88563441873302 free_energy=-202.88563441873302 stress="0.01002599112689495 -1.6513519440763957e-08 2.3067321386349704e-09 -1.6513519440763957e-08 0.01002601720392704 -1.2088670509058375e-08 2.3067321386349704e-09 -1.2088670509058375e-08 -0.00025339992134831846" pbc="T T T"
Pt      -0.00000000       0.00000021      19.95723433        4       0.00252673       0.00111553       0.02364826
Pt       2.80721396      -0.00000008      19.95723446        4       0.00065121      -0.01594399       0.00972682
Pt       5.61442779      -0.00000016      19.95723449        4      -0.00226790       0.00161837       0.02364179
Pt       1.40360720       2.43111835      19.95723435        4      -0.01414428       0.00739379       0.00973422
Pt       4.21082080       2.43111834      19.95723443        4       0.01349081       0.00855716       0.00978471
Pt       7.01803483       2.43111844      19.95723431        4      -0.00174640       0.00237176       0.01089545
Pt       2.80721405       4.86223724      19.95723403        4      -0.00025584      -0.00273614       0.02369472
Pt       5.61442805       4.86223734      19.95723421        4       0.00296001       0.00031309       0.01094191
Pt       8.42164144       4.86223725      19.95723437        4      -0.00121408      -0.00269040       0.01088364
Pt       1.40360728       0.81037258      22.29206792        3       0.05146024       0.03163148      -0.15736772
Pt       4.21082126       0.81037248      22.29206794        3      -0.05316560       0.02883740      -0.15732150
Pt       7.01803474       0.81037256      22.29206786        3      -0.00361942       0.01246005      -0.02476821
Pt       2.80721448       3.24149124      22.29206779        3       0.00169409      -0.06045831      -0.15735675
Pt       5.61442762       3.24149125      22.29206790        3      -0.01968018      -0.01315338      -0.06404703
Pt       8.42164155       3.24149130      22.29206809        3       0.02126787      -0.01055448      -0.06406103
Pt       4.21082091       5.67260997      22.29206801        3       0.01261124      -0.00309971      -0.02491163
Pt       7.01803488       5.67261037      22.29206781        3      -0.00158121       0.02370425      -0.06416412
Pt       9.82524819       5.67261065      22.29206808        3      -0.00898400      -0.00936524      -0.02487769
Pt      -0.00000056       1.62074567      24.58417371        2      -0.08191141       0.03570780       0.12799168
Pt       2.80721444       1.62074547      24.58417389        2      -0.00000928       0.00000453      -0.20295796
Pt       5.61442780       1.62074536      24.58417372        2       0.08756095       0.03952149       0.13047837
Pt       1.40360637       4.05186441      24.58417386        2      -0.07808891       0.05617227       0.13055925
Pt       4.21082088       4.05186402      24.58417378        2       0.07198147       0.05318369       0.12816167
Pt       7.01803505       4.05186404      24.58417403        2      -0.00000600       0.00000676       0.13736314
Pt       2.80721282       6.48298342      24.58417366        2       0.00001622      -0.00001161      -0.01224695
Pt       5.61442796       6.48298327      24.58417384        2      -0.00947022      -0.09569398       0.13038388
Pt       8.42164224       6.48298339      24.58417376        2       0.00992335      -0.08889458       0.12799598
Pt      -0.00726475      -0.00349421      26.91493157        1       0.02979489       0.01753534      -0.01562082
Pt       2.80583371       0.01999309      26.90097452        1       0.00158214       0.03069663      -0.01857923
Pt       5.62108302      -0.00454002      26.91492412        1      -0.03008606       0.01701007      -0.01559340
Pt       1.42160889       2.42231485      26.90097423        1       0.02580717      -0.01672018      -0.01858078
Pt       4.19419388       2.41992687      26.90097220        1      -0.02738142      -0.01396370      -0.01857408
Pt       7.01951990       2.41248024      27.01582021        1      -0.00245926       0.02899354       0.02586032
Pt       2.80781684       4.87027472      26.91493437        1       0.00031940      -0.03457632      -0.01562812
Pt       5.59754758       4.87026806      27.01582910        1       0.02630487      -0.01235102       0.02581483
Pt       8.43704135       4.87284205      27.01582515        1      -0.02387737      -0.01662058       0.02583600
O        7.01803877       4.05186122      29.56202255        0       0.00000314      -0.00000744      -0.03906063
C        7.01803860       4.05186157      28.36171510        0      -0.00000666       0.00000608      -0.02767907
