38
Lattice="8.421641763931781 0.0 0.0 4.2108208819658905 7.293355709136913 0.0 0.0 0.0 46.87624170604845" Properties=species:S:1:pos:R:3:tags:I:1:forces:R:3 charge=0 spin=0 energy=-202.88632106424083 free_energy=-202.88632106424083 stress="0.010008864104747772 -1.8094086229325512e-08 -1.0168993425097028e-09 -1.8094086229325512e-08 0.010008889250457287 -1.1035785618673799e-08 -1.0168993425097028e-09 -1.1035785618673799e-08 -0.0002951716596726328" pbc="T T T"
Pt      -0.00000000       0.00000021      19.95723433        4       0.00273396       0.00124473       0.02372292
Pt       2.80721396      -0.00000008      19.95723446        4       0.00064228      -0.01587681       0.00965985
Pt       5.61442779      -0.00000016      19.95723449        4      -0.00248445       0.00173229       0.02371713
Pt       1.40360720       2.43111835      19.95723435        4      -0.01408076       0.00736688       0.00966753
Pt       4.21082080       2.43111834      19.95723443        4       0.01343631       0.00851685       0.00971817
Pt       7.01803483       2.43111844      19.95723431        4      -0.00175154       0.00274584       0.01100008
Pt       2.80721405       4.86223724      19.95723403        4      -0.00024694      -0.00297898       0.02376910
Pt       5.61442805       4.86223734      19.95723421        4       0.00328685       0.00013127       0.01104467
Pt       8.42164144       4.86223725      19.95723437        4      -0.00153596      -0.00288274       0.01098672
Pt       1.40360728       0.81037258      22.29206792        3       0.05155677       0.03178667      -0.15754527
Pt       4.21082126       0.81037248      22.29206794        3      -0.05335324       0.02884251      -0.15749459
Pt       7.01803474       0.81037256      22.29206786        3      -0.00368467       0.01226330      -0.02591080
Pt       2.80721448       3.24149124      22.29206779        3       0.00178315      -0.06061882      -0.15754108
Pt       5.61442762       3.24149125      22.29206790        3      -0.01969024      -0.01314130      -0.06245613
Pt       8.42164155       3.24149130      22.29206809        3       0.02126514      -0.01056780      -0.06247203
Pt       4.21082091       5.67260997      22.29206801        3       0.01247402      -0.00294478      -0.02606286
Pt       7.01803488       5.67261037      22.29206781        3      -0.00156976       0.02370620      -0.06257451
Pt       9.82524819       5.67261065      22.29206808        3      -0.00878202      -0.00932342      -0.02602677
Pt      -0.00000056       1.62074567      24.58417371        2      -0.08744856       0.03870977       0.12688768
Pt       2.80721444       1.62074547      24.58417389        2      -0.00000568       0.00000421      -0.23093802
Pt       5.61442780       1.62074536      24.58417372        2       0.09283634       0.04241127       0.12934433
Pt       1.40360637       4.05186441      24.58417386        2      -0.08322950       0.05929278       0.12941688
Pt       4.21082088       4.05186402      24.58417378        2       0.07734657       0.05647374       0.12704419
Pt       7.01803505       4.05186404      24.58417403        2      -0.00000419       0.00000114       0.14669840
Pt       2.80721282       6.48298342      24.58417366        2       0.00001134      -0.00000701       0.00365712
Pt       5.61442796       6.48298327      24.58417384        2      -0.00960085      -0.10170631       0.12922855
Pt       8.42164224       6.48298339      24.58417376        2       0.01009606      -0.09518534       0.12689656
Pt      -0.00151421      -0.00047385      26.91395067        1      -0.00836247      -0.00320845      -0.01662447
Pt       2.80614925       0.02478920      26.89887686        1       0.00086874      -0.01390291      -0.00273506
Pt       5.61559460      -0.00107421      26.91395014        1       0.00696269      -0.00564208      -0.01662152
Pt       1.42560941       2.41964405      26.89887657        1      -0.01248055       0.00619975      -0.00273712
Pt       4.18988426       2.41779983      26.89887590        1       0.01160622       0.00771033      -0.00273470
Pt       7.01951772       2.41236626      27.01984470        1      -0.00252756       0.01112906      -0.00531872
Pt       2.80756038       4.86378383      26.91395078        1       0.00140846       0.00884805      -0.01662553
Pt       5.59744694       4.87032745      27.01984359        1       0.01089749      -0.00336654      -0.00532558
Pt       8.43714068       4.87289724      27.01984289        1      -0.00837453      -0.00775703      -0.00531596
O        7.01803581       4.05186760      29.55952722        0       0.00000126      -0.00000387      -0.01303404
C        7.01803534       4.05186603      28.35899494        0      -0.00000022      -0.00000244       0.00363479
