38
Lattice="8.421641763931781 0.0 0.0 4.2108208819658905 7.293355709136913 0.0 0.0 0.0 46.87624170604845" Properties=species:S:1:pos:R:3:tags:I:1:forces:R:3 charge=0 spin=0 energy=-202.8856334650587 free_energy=-202.8856334650587 stress="0.010025993920862675 -1.728237108977737e-08 2.560144984897761e-09 -1.728237108977737e-08 0.01002601720392704 -1.2380518832344478e-08 2.560144984897761e-09 -1.2380518832344478e-08 -0.00025339677813462913" pbc="T T T"
Pt      -0.00000000       0.00000021      19.95723433        4       0.00252680       0.00111554       0.02364813
Pt       2.80721396      -0.00000008      19.95723446        4       0.00065105      -0.01594406       0.00972695
Pt       5.61442779      -0.00000016      19.95723449        4      -0.00226800       0.00161848       0.02364173
Pt       1.40360720       2.43111835      19.95723435        4      -0.01414420       0.00739381       0.00973420
Pt       4.21082080       2.43111834      19.95723443        4       0.01349092       0.00855716       0.00978471
Pt       7.01803483       2.43111844      19.95723431        4      -0.00174649       0.00237179       0.01089545
Pt       2.80721405       4.86223724      19.95723403        4      -0.00025577      -0.00273623       0.02369480
Pt       5.61442805       4.86223734      19.95723421        4       0.00296006       0.00031317       0.01094198
Pt       8.42164144       4.86223725      19.95723437        4      -0.00121410      -0.00269055       0.01088379
Pt       1.40360728       0.81037258      22.29206792        3       0.05146026       0.03163147      -0.15736777
Pt       4.21082126       0.81037248      22.29206794        3      -0.05316569       0.02883724      -0.15732150
Pt       7.01803474       0.81037256      22.29206786        3      -0.00361935       0.01245997      -0.02476823
Pt       2.80721448       3.24149124      22.29206779        3       0.00169402      -0.06045826      -0.15735675
Pt       5.61442762       3.24149125      22.29206790        3      -0.01968005      -0.01315339      -0.06404709
Pt       8.42164155       3.24149130      22.29206809        3       0.02126761      -0.01055438      -0.06406095
Pt       4.21082091       5.67260997      22.29206801        3       0.01261134      -0.00309974      -0.02491156
Pt       7.01803488       5.67261037      22.29206781        3      -0.00158150       0.02370407      -0.06416374
Pt       9.82524819       5.67261065      22.29206808        3      -0.00898393      -0.00936524      -0.02487751
Pt      -0.00000056       1.62074567      24.58417371        2      -0.08191124       0.03570791       0.12799144
Pt       2.80721444       1.62074547      24.58417389        2      -0.00000927       0.00000431      -0.20295770
Pt       5.61442780       1.62074536      24.58417372        2       0.08756077       0.03952172       0.13047792
Pt       1.40360637       4.05186441      24.58417386        2      -0.07808897       0.05617242       0.13055922
Pt       4.21082088       4.05186402      24.58417378        2       0.07198150       0.05318386       0.12816176
Pt       7.01803505       4.05186404      24.58417403        2      -0.00000590       0.00000684       0.13736315
Pt       2.80721282       6.48298342      24.58417366        2       0.00001613      -0.00001211      -0.01224830
Pt       5.61442796       6.48298327      24.58417384        2      -0.00947038      -0.09569382       0.13038495
Pt       8.42164224       6.48298339      24.58417376        2       0.00992365      -0.08889457       0.12799680
Pt      -0.00726482      -0.00349422      26.91493156        1       0.02980042       0.01753480      -0.01562120
Pt       2.80583371       0.01999318      26.90097458        1       0.00158217       0.03069661      -0.01858006
Pt       5.62108317      -0.00453996      26.91492437        1      -0.03009193       0.01700756      -0.01559298
Pt       1.42160899       2.42231485      26.90097413        1       0.02580734      -0.01672040      -0.01858084
Pt       4.19419379       2.41992684      26.90097220        1      -0.02738171      -0.01396448      -0.01857421
Pt       7.01951987       2.41248021      27.01582022        1      -0.00245849       0.02899693       0.02586083
Pt       2.80781684       4.87027474      26.91493444        1       0.00031871      -0.03457683      -0.01562799
Pt       5.59754755       4.87026808      27.01582906        1       0.02630508      -0.01235026       0.02581481
Pt       8.43704132       4.87284204      27.01582511        1      -0.02387712      -0.01661983       0.02583579
O        7.01803873       4.05186118      29.56202259        0       0.00000304      -0.00000754      -0.03906035
C        7.01803861       4.05186157      28.36171492        0      -0.00000653       0.00000600      -0.02767995
