38
Lattice="8.421641763931781 0.0 0.0 4.2108208819658905 7.293355709136913 0.0 0.0 0.0 46.87624170604845" Properties=species:S:1:pos:R:3:tags:I:1:forces:R:3 charge=0 spin=0 energy=-202.88649654031505 free_energy=-202.88649654031505 stress="0.009958211332559586 -2.262249942930339e-08 3.78791664701339e-09 -2.262249942930339e-08 0.009958221577107906 -1.734016130683358e-08 3.78791664701339e-09 -1.734016130683358e-08 -0.0003850651846732944" pbc="T T T"
Pt      -0.00000000       0.00000021      19.95723433        4       0.00273266       0.00118286       0.02365420
Pt       2.80721396      -0.00000008      19.95723446        4       0.00065003      -0.01597223       0.00951577
Pt       5.61442779      -0.00000016      19.95723449        4      -0.00243045       0.00176143       0.02364845
Pt       1.40360720       2.43111835      19.95723435        4      -0.01416748       0.00740789       0.00952396
Pt       4.21082080       2.43111834      19.95723443        4       0.01351537       0.00857124       0.00957476
Pt       7.01803483       2.43111844      19.95723431        4      -0.00177555       0.00278748       0.01090890
Pt       2.80721405       4.86223724      19.95723403        4      -0.00029893      -0.00294668       0.02369996
Pt       5.61442805       4.86223734      19.95723421        4       0.00333492       0.00013097       0.01095264
Pt       8.42164144       4.86223725      19.95723437        4      -0.00156042      -0.00292353       0.01089456
Pt       1.40360728       0.81037258      22.29206792        3       0.05184314       0.03213169      -0.15794943
Pt       4.21082126       0.81037248      22.29206794        3      -0.05379489       0.02891856      -0.15789853
Pt       7.01803474       0.81037256      22.29206786        3      -0.00373727       0.01227528      -0.02539143
Pt       2.80721448       3.24149124      22.29206779        3       0.00193833      -0.06104081      -0.15794258
Pt       5.61442762       3.24149125      22.29206790        3      -0.01995548      -0.01328128      -0.06214056
Pt       8.42164155       3.24149130      22.29206809        3       0.02151839      -0.01072882      -0.06215687
Pt       4.21082091       5.67260997      22.29206801        3       0.01251099      -0.00290459      -0.02554413
Pt       7.01803488       5.67261037      22.29206781        3      -0.00155756       0.02400606      -0.06226144
Pt       9.82524819       5.67261065      22.29206808        3      -0.00876573      -0.00937473      -0.02550613
Pt      -0.00000056       1.62074567      24.58417371        2      -0.08973722       0.04043425       0.11567169
Pt       2.80721444       1.62074547      24.58417389        2      -0.00000442       0.00001191      -0.24438740
Pt       5.61442780       1.62074536      24.58417372        2       0.09446225       0.04357421       0.11799478
Pt       1.40360637       4.05186441      24.58417386        2      -0.08504642       0.06012961       0.11807282
Pt       4.21082088       4.05186402      24.58417378        2       0.07998029       0.05759345       0.11584570
Pt       7.01803505       4.05186404      24.58417403        2      -0.00000353       0.00000165       0.13880871
Pt       2.80721282       6.48298342      24.58417366        2       0.00000991      -0.00001410      -0.01335664
Pt       5.61442796       6.48298327      24.58417384        2      -0.00941408      -0.10370283       0.11786952
Pt       8.42164224       6.48298339      24.58417376        2       0.00975214      -0.09803324       0.11568187
Pt      -0.00232715      -0.00010608      26.90916702        1      -0.00384817      -0.00303526      -0.00074370
Pt       2.80626057       0.02371119      26.89509216        1       0.00060452      -0.00788798       0.01007266
Pt       5.61567969      -0.00196040      26.90916701        1       0.00455794      -0.00181869      -0.00074205
Pt       1.42461638       2.42008798      26.89509772        1      -0.00712674       0.00341954       0.01005290
Pt       4.19076005       2.41843862      26.89510114        1       0.00653620       0.00446194       0.01004370
Pt       7.01849815       2.41339241      27.01825769        1       0.00056241       0.00282476      -0.00012620
Pt       2.80828857       4.86430060      26.90917366        1      -0.00071633       0.00486088      -0.00076620
Pt       5.59884595       4.87069640      27.01825796        1       0.00216350      -0.00189365      -0.00012276
Pt       8.43676143       4.87150187      27.01825739        1      -0.00272722      -0.00092756      -0.00012730
O        7.01803918       4.05186378      29.55867726        0      -0.00000356       0.00000112      -0.00924503
C        7.01803764       4.05186422      28.35819738        0      -0.00000159      -0.00000082       0.00392075
