38
Lattice="8.421641763931781 0.0 0.0 4.2108208819658905 7.293355709136913 0.0 0.0 0.0 46.87624170604845" Properties=species:S:1:pos:R:3:tags:I:1:forces:R:3 charge=0 spin=0 energy=-202.88649654031505 free_energy=-202.88649654031505 stress="0.009958202950656414 -2.0474686834859313e-08 4.08854106126455e-09 -2.0474686834859313e-08 0.00995821412652731 -1.539129890204549e-08 4.08854106126455e-09 -1.539129890204549e-08 -0.0003850809298455715" pbc="T T T"
Pt      -0.00000000       0.00000021      19.95723433        4       0.00273262       0.00118295       0.02365435
Pt       2.80721396      -0.00000008      19.95723446        4       0.00065013      -0.01597215       0.00951588
Pt       5.61442779      -0.00000016      19.95723449        4      -0.00243051       0.00176137       0.02364854
Pt       1.40360720       2.43111835      19.95723435        4      -0.01416733       0.00740808       0.00952408
Pt       4.21082080       2.43111834      19.95723443        4       0.01351536       0.00857134       0.00957489
Pt       7.01803483       2.43111844      19.95723431        4      -0.00177545       0.00278731       0.01090905
Pt       2.80721405       4.86223724      19.95723403        4      -0.00029902      -0.00294683       0.02370013
Pt       5.61442805       4.86223734      19.95723421        4       0.00333486       0.00013085       0.01095241
Pt       8.42164144       4.86223725      19.95723437        4      -0.00156024      -0.00292373       0.01089452
Pt       1.40360728       0.81037258      22.29206792        3       0.05184356       0.03213194      -0.15794963
Pt       4.21082126       0.81037248      22.29206794        3      -0.05379448       0.02891857      -0.15789813
Pt       7.01803474       0.81037256      22.29206786        3      -0.00373746       0.01227537      -0.02539101
Pt       2.80721448       3.24149124      22.29206779        3       0.00193829      -0.06104052      -0.15794182
Pt       5.61442762       3.24149125      22.29206790        3      -0.01995550      -0.01328117      -0.06214106
Pt       8.42164155       3.24149130      22.29206809        3       0.02151836      -0.01072887      -0.06215729
Pt       4.21082091       5.67260997      22.29206801        3       0.01251060      -0.00290443      -0.02554426
Pt       7.01803488       5.67261037      22.29206781        3      -0.00155753       0.02400642      -0.06226250
Pt       9.82524819       5.67261065      22.29206808        3      -0.00876572      -0.00937477      -0.02550660
Pt      -0.00000056       1.62074567      24.58417371        2      -0.08973692       0.04043429       0.11567163
Pt       2.80721444       1.62074547      24.58417389        2      -0.00000482       0.00001131      -0.24439055
Pt       5.61442780       1.62074536      24.58417372        2       0.09446204       0.04357434       0.11799478
Pt       1.40360637       4.05186441      24.58417386        2      -0.08504575       0.06012917       0.11807390
Pt       4.21082088       4.05186402      24.58417378        2       0.07997968       0.05759283       0.11584523
Pt       7.01803505       4.05186404      24.58417403        2      -0.00000355       0.00000156       0.13880943
Pt       2.80721282       6.48298342      24.58417366        2       0.00000958      -0.00001411      -0.01335949
Pt       5.61442796       6.48298327      24.58417384        2      -0.00941406      -0.10370224       0.11786903
Pt       8.42164224       6.48298339      24.58417376        2       0.00975216      -0.09803256       0.11568168
Pt      -0.00232771      -0.00010658      26.90916640        1      -0.00384191      -0.00303365      -0.00074228
Pt       2.80626072       0.02371186      26.89509265        1       0.00060326      -0.00789298       0.01007315
Pt       5.61568054      -0.00196081      26.90916683        1       0.00455307      -0.00181657      -0.00074067
Pt       1.42461705       2.42008739      26.89509805        1      -0.00713183       0.00342440       0.01005366
Pt       4.19075901       2.41843831      26.89510178        1       0.00654147       0.00446489       0.01004370
Pt       7.01849815       2.41339199      27.01825717        1       0.00056200       0.00282351      -0.00013014
Pt       2.80828850       4.86430150      26.90917360        1      -0.00071813       0.00485516      -0.00076582
Pt       5.59884527       4.87069675      27.01825783        1       0.00216361      -0.00189299      -0.00012805
Pt       8.43676211       4.87150223      27.01825672        1      -0.00272567      -0.00092855      -0.00013281
O        7.01803913       4.05186382      29.55867550        0      -0.00000310       0.00000089      -0.00923394
C        7.01803763       4.05186402      28.35819709        0      -0.00000178      -0.00000065       0.00392579
