38
Lattice="8.421641763931781 0.0 0.0 4.2108208819658905 7.293355709136913 0.0 0.0 0.0 46.87624170604845" Properties=species:S:1:pos:R:3:tags:I:1:forces:R:3 charge=0 spin=0 energy=-202.81927585244884 free_energy=-202.81927585244884 stress="0.009581453166902065 -9.866145234127544e-08 -2.112679808874418e-08 -9.866145234127544e-08 0.009581529535353184 -1.7517771766506485e-07 -2.112679808874418e-08 -1.7517771766506485e-07 -0.00038855025195516646" pbc="T T T"
Pt      -0.00000000       0.00000021      19.95723433        4       0.00000182      -0.00000774       0.02221429
Pt       2.80721396      -0.00000008      19.95723446        4       0.00642517       0.00545384       0.01954250
Pt       5.61442779      -0.00000016      19.95723449        4      -0.00699114       0.00646274       0.02006263
Pt       1.40360720       2.43111835      19.95723435        4       0.00908484       0.00283639       0.02010359
Pt       4.21082080       2.43111834      19.95723443        4       0.00000524       0.00001049      -0.06919014
Pt       7.01803483       2.43111844      19.95723431        4      -0.00794410       0.00284987       0.01959089
Pt       2.80721405       4.86223724      19.95723403        4       0.00151617      -0.00830717       0.01952834
Pt       5.61442805       4.86223734      19.95723421        4      -0.00209668      -0.00929704       0.02011915
Pt       8.42164144       4.86223725      19.95723437        4       0.00000127      -0.00000550       0.01756289
Pt       1.40360728       0.81037258      22.29206792        3      -0.00114555       0.00597130      -0.06317616
Pt       4.21082126       0.81037248      22.29206794        3      -0.00139695       0.06274370      -0.11442826
Pt       7.01803474       0.81037256      22.29206786        3      -0.00458896      -0.00401327      -0.06318532
Pt       2.80721448       3.24149124      22.29206779        3       0.05504025      -0.03021425      -0.11445950
Pt       5.61442762       3.24149125      22.29206790        3      -0.05365307      -0.03254141      -0.11444849
Pt       8.42164155       3.24149130      22.29206809        3      -0.00399811       0.00292768      -0.02821087
Pt       4.21082091       5.67260997      22.29206801        3       0.00573321      -0.00196368      -0.06339189
Pt       7.01803488       5.67261037      22.29206781        3       0.00454639       0.00204991      -0.02838746
Pt       9.82524819       5.67261065      22.29206808        3      -0.00054815      -0.00503273      -0.02841081
Pt      -0.00000056       1.62074567      24.58417371        2       0.00351647       0.00465817      -0.04006831
Pt       2.80721444       1.62074547      24.58417389        2       0.04159736       0.02372394      -0.12960355
Pt       5.61442780       1.62074536      24.58417372        2      -0.04127995       0.02401054      -0.12945394
Pt       1.40360637       4.05186441      24.58417386        2      -0.23704600       0.13485977       0.34080362
Pt       4.21082088       4.05186402      24.58417378        2      -0.00029620      -0.04760993      -0.12913147
Pt       7.01803505       4.05186404      24.58417403        2       0.23511156       0.13815750       0.34082034
Pt       2.80721282       6.48298342      24.58417366        2      -0.00573006       0.00060635      -0.03973198
Pt       5.61442796       6.48298327      24.58417384        2       0.00216830      -0.00534264      -0.03979536
Pt       8.42164224       6.48298339      24.58417376        2       0.00196203      -0.27296907       0.34093812
Pt       0.00001217       0.00003129      26.91542436        1      -0.00002689      -0.00001030       0.00905258
Pt       2.79372280       0.02779202      26.90049184        1       0.00536792      -0.00828430      -0.00337813
Pt       5.62906052       0.02801701      26.89946097        1      -0.00801756      -0.00788479      -0.00470571
Pt       1.42056101       2.40447788      26.89939012        1      -0.00293146       0.01098570      -0.00466031
Pt       4.21082410       2.43117631      26.92445260        1       0.00000244      -0.00010029       0.00754222
Pt       7.00071139       2.40553986      26.90050361        1       0.00459387       0.00893334      -0.00340576
Pt       2.83804509       4.86010754      26.90058745        1      -0.00997195      -0.00056977      -0.00368901
Pt       5.58284429       4.86094206      26.89951464        1       0.01099313      -0.00302615      -0.00498735
Pt       8.42164820       4.86229256      27.06841796        1      -0.00004280      -0.00026294      -0.01482273
O        8.42157753       4.86187979      30.08159358        0      -0.00002453      -0.00011455       0.01040981
C        8.42159374       4.86198156      28.91916417        0       0.00006239       0.00031651       0.02643156
