38
Lattice="8.421641763931781 0.0 0.0 4.2108208819658905 7.293355709136913 0.0 0.0 0.0 46.87624170604845" Properties=species:S:1:pos:R:3:tags:I:1:forces:R:3 charge=0 spin=0 energy=-202.81940269113292 free_energy=-202.81940269113292 stress="0.009595603682100773 -8.551268138035084e-08 -5.095465382964903e-09 -8.551268138035084e-08 0.009595617651939392 -4.600149949851584e-08 -5.095465382964903e-09 -4.600149949851584e-08 -0.00033139678998850286" pbc="T T T"
Pt      -0.00000000       0.00000021      19.95723433        4       0.00000138      -0.00000253       0.02237967
Pt       2.80721396      -0.00000008      19.95723446        4       0.00647307       0.00543779       0.01939747
Pt       5.61442779      -0.00000016      19.95723449        4      -0.00701201       0.00637150       0.01996553
Pt       1.40360720       2.43111835      19.95723435        4       0.00901369       0.00290033       0.02000760
Pt       4.21082080       2.43111834      19.95723443        4       0.00000300       0.00000214      -0.06854578
Pt       7.01803483       2.43111844      19.95723431        4      -0.00795260       0.00290200       0.01945090
Pt       2.80721405       4.86223724      19.95723403        4       0.00147716      -0.00834023       0.01938958
Pt       5.61442805       4.86223734      19.95723421        4      -0.00200478      -0.00926831       0.02002622
Pt       8.42164144       4.86223725      19.95723437        4       0.00000133      -0.00000385       0.01783432
Pt       1.40360728       0.81037258      22.29206792        3      -0.00120494       0.00606759      -0.06331003
Pt       4.21082126       0.81037248      22.29206794        3      -0.00146240       0.06240465      -0.11424765
Pt       7.01803474       0.81037256      22.29206786        3      -0.00463731      -0.00411298      -0.06332292
Pt       2.80721448       3.24149124      22.29206779        3       0.05478816      -0.02997355      -0.11425030
Pt       5.61442762       3.24149125      22.29206790        3      -0.05333093      -0.03241809      -0.11423549
Pt       8.42164155       3.24149130      22.29206809        3      -0.00413770       0.00279028      -0.02747734
Pt       4.21082091       5.67260997      22.29206801        3       0.00584582      -0.00194619      -0.06355238
Pt       7.01803488       5.67261037      22.29206781        3       0.00448198       0.00225783      -0.02769623
Pt       9.82524819       5.67261065      22.29206808        3      -0.00034339      -0.00506741      -0.02772747
Pt      -0.00000056       1.62074567      24.58417371        2       0.00352216       0.00194257      -0.03879726
Pt       2.80721444       1.62074547      24.58417389        2       0.04374985       0.02445152      -0.12864822
Pt       5.61442780       1.62074536      24.58417372        2      -0.04299846       0.02552883      -0.12852918
Pt       1.40360637       4.05186441      24.58417386        2      -0.24334049       0.13911004       0.34519225
Pt       4.21082088       4.05186402      24.58417378        2      -0.00075150      -0.04999172      -0.12838359
Pt       7.01803505       4.05186404      24.58417403        2       0.24208775       0.14131372       0.34523979
Pt       2.80721282       6.48298342      24.58417366        2      -0.00342121       0.00198978      -0.03854075
Pt       5.61442796       6.48298327      24.58417384        2      -0.00014891      -0.00393896      -0.03860052
Pt       8.42164224       6.48298339      24.58417376        2       0.00129430      -0.28040722       0.34524339
Pt       0.00000181       0.00000051      26.91822055        1      -0.00000190      -0.00000140      -0.00344789
Pt       2.79399821       0.02739040      26.89925515        1       0.00299756      -0.00787476       0.00156121
Pt       5.62768669       0.02769372      26.89773672        1      -0.00223712      -0.00790067       0.00183585
Pt       1.42095695       2.40579865      26.89769119        1      -0.00572038       0.00588663       0.00182960
Pt       4.21081951       2.43111888      26.92724248        1       0.00000135      -0.00000062      -0.00281878
Pt       7.00091556       2.40596886      26.89926954        1       0.00532214       0.00653277       0.00156662
Pt       2.83754859       4.85999981      26.89926299        1      -0.00831668       0.00134555       0.00156280
Pt       5.58382038       4.85986641      26.89771312        1       0.00796057       0.00200944       0.00183691
Pt       8.42164166       4.86223711      27.07653681        1       0.00000197       0.00000320      -0.00618858
O        8.42164131       4.86223674      30.09112709        0       0.00000036      -0.00000071      -0.00757148
C        8.42164153       4.86223704      28.92857261        0      -0.00000089       0.00000105       0.00157158
