38
Lattice="8.421641763931781 0.0 0.0 4.2108208819658905 7.293355709136913 0.0 0.0 0.0 46.87624170604845" Properties=species:S:1:pos:R:3:tags:I:1:forces:R:3 charge=0 spin=0 energy=-202.8194007837843 free_energy=-202.8194007837843 stress="0.009595608338713646 -8.511246818443396e-08 -6.149908582386843e-09 -8.511246818443396e-08 0.009595630690455437 -4.646111051442858e-08 -6.149908582386843e-09 -4.646111051442858e-08 -0.0003313711495138705" pbc="T T T"
Pt      -0.00000000       0.00000021      19.95723433        4       0.00000140      -0.00000256       0.02237975
Pt       2.80721396      -0.00000008      19.95723446        4       0.00647299       0.00543782       0.01939734
Pt       5.61442779      -0.00000016      19.95723449        4      -0.00701183       0.00637152       0.01996547
Pt       1.40360720       2.43111835      19.95723435        4       0.00901363       0.00290027       0.02000762
Pt       4.21082080       2.43111834      19.95723443        4       0.00000277       0.00000239      -0.06854583
Pt       7.01803483       2.43111844      19.95723431        4      -0.00795232       0.00290171       0.01945079
Pt       2.80721405       4.86223724      19.95723403        4       0.00147736      -0.00834025       0.01938949
Pt       5.61442805       4.86223734      19.95723421        4      -0.00200496      -0.00926848       0.02002596
Pt       8.42164144       4.86223725      19.95723437        4       0.00000147      -0.00000389       0.01783470
Pt       1.40360728       0.81037258      22.29206792        3      -0.00120520       0.00606776      -0.06331060
Pt       4.21082126       0.81037248      22.29206794        3      -0.00146239       0.06240423      -0.11424861
Pt       7.01803474       0.81037256      22.29206786        3      -0.00463735      -0.00411292      -0.06332266
Pt       2.80721448       3.24149124      22.29206779        3       0.05478731      -0.02997351      -0.11424971
Pt       5.61442762       3.24149125      22.29206790        3      -0.05333124      -0.03241825      -0.11423487
Pt       8.42164155       3.24149130      22.29206809        3      -0.00413742       0.00279031      -0.02747757
Pt       4.21082091       5.67260997      22.29206801        3       0.00584581      -0.00194550      -0.06355286
Pt       7.01803488       5.67261037      22.29206781        3       0.00448197       0.00225781      -0.02769646
Pt       9.82524819       5.67261065      22.29206808        3      -0.00034351      -0.00506797      -0.02772805
Pt      -0.00000056       1.62074567      24.58417371        2       0.00352087       0.00193841      -0.03879326
Pt       2.80721444       1.62074547      24.58417389        2       0.04375707       0.02445596      -0.12864546
Pt       5.61442780       1.62074536      24.58417372        2      -0.04300347       0.02553381      -0.12852189
Pt       1.40360637       4.05186441      24.58417386        2      -0.24334280       0.13911191       0.34519416
Pt       4.21082088       4.05186402      24.58417378        2      -0.00074950      -0.04999890      -0.12837844
Pt       7.01803505       4.05186404      24.58417403        2       0.24208830       0.14131401       0.34524554
Pt       2.80721282       6.48298342      24.58417366        2      -0.00341695       0.00199227      -0.03853886
Pt       5.61442796       6.48298327      24.58417384        2      -0.00015353      -0.00393855      -0.03859691
Pt       8.42164224       6.48298339      24.58417376        2       0.00129386      -0.28040996       0.34524405
Pt       0.00000185       0.00000045      26.91822546        1      -0.00000270      -0.00000037      -0.00346765
Pt       2.79399735       0.02739104      26.89925437        1       0.00300399      -0.00787870       0.00156965
Pt       5.62768711       0.02769430      26.89773599        1      -0.00224053      -0.00790338       0.00184236
Pt       1.42095732       2.40579803      26.89769041        1      -0.00572263       0.00589365       0.00183670
Pt       4.21081950       2.43111897      26.92724925        1       0.00000183      -0.00000060      -0.00284592
Pt       7.00091549       2.40596785      26.89926843        1       0.00532226       0.00653922       0.00156562
Pt       2.83754962       4.86000023      26.89926178        1      -0.00832469       0.00134171       0.00156895
Pt       5.58381946       4.85986640      26.89771255        1       0.00796793       0.00200723       0.00183704
Pt       8.42164175       4.86223698      27.07653876        1       0.00000238       0.00000222      -0.00619460
O        8.42164128       4.86223673      30.09112859        0       0.00000020      -0.00000004      -0.00757148
C        8.42164155       4.86223700      28.92857440        0      -0.00000047      -0.00000040       0.00156624
