38
Lattice="8.421641763931781 0.0 0.0 4.2108208819658905 7.293355709136913 0.0 0.0 0.0 46.87624170604845" Properties=species:S:1:pos:R:3:tags:I:1:forces:R:3 charge=0 spin=0 energy=-202.81940364480724 free_energy=-202.81940364480724 stress="0.009595606476068497 -8.498473391682637e-08 -5.069554998016201e-09 -8.498473391682637e-08 0.009595624171197414 -4.881545123680553e-08 -5.069554998016201e-09 -4.881545123680553e-08 -0.0003315411740913987" pbc="T T T"
Pt      -0.00000000       0.00000021      19.95723433        4       0.00000141      -0.00000233       0.02237975
Pt       2.80721396      -0.00000008      19.95723446        4       0.00647301       0.00543780       0.01939742
Pt       5.61442779      -0.00000016      19.95723449        4      -0.00701193       0.00637140       0.01996564
Pt       1.40360720       2.43111835      19.95723435        4       0.00901362       0.00290039       0.02000747
Pt       4.21082080       2.43111834      19.95723443        4       0.00000292       0.00000234      -0.06854538
Pt       7.01803483       2.43111844      19.95723431        4      -0.00795240       0.00290192       0.01945079
Pt       2.80721405       4.86223724      19.95723403        4       0.00147716      -0.00834015       0.01938971
Pt       5.61442805       4.86223734      19.95723421        4      -0.00200490      -0.00926832       0.02002609
Pt       8.42164144       4.86223725      19.95723437        4       0.00000159      -0.00000400       0.01783462
Pt       1.40360728       0.81037258      22.29206792        3      -0.00120529       0.00606753      -0.06331033
Pt       4.21082126       0.81037248      22.29206794        3      -0.00146227       0.06240391      -0.11424788
Pt       7.01803474       0.81037256      22.29206786        3      -0.00463736      -0.00411278      -0.06332325
Pt       2.80721448       3.24149124      22.29206779        3       0.05478825      -0.02997394      -0.11425047
Pt       5.61442762       3.24149125      22.29206790        3      -0.05333074      -0.03241837      -0.11423495
Pt       8.42164155       3.24149130      22.29206809        3      -0.00413783       0.00279013      -0.02747775
Pt       4.21082091       5.67260997      22.29206801        3       0.00584581      -0.00194583      -0.06355311
Pt       7.01803488       5.67261037      22.29206781        3       0.00448202       0.00225794      -0.02769596
Pt       9.82524819       5.67261065      22.29206808        3      -0.00034352      -0.00506780      -0.02772737
Pt      -0.00000056       1.62074567      24.58417371        2       0.00352093       0.00194137      -0.03879813
Pt       2.80721444       1.62074547      24.58417389        2       0.04375451       0.02445475      -0.12865143
Pt       5.61442780       1.62074536      24.58417372        2      -0.04300134       0.02553245      -0.12852626
Pt       1.40360637       4.05186441      24.58417386        2      -0.24334267       0.13911274       0.34519628
Pt       4.21082088       4.05186402      24.58417378        2      -0.00075124      -0.04999525      -0.12837918
Pt       7.01803505       4.05186404      24.58417403        2       0.24208939       0.14131437       0.34524536
Pt       2.80721282       6.48298342      24.58417366        2      -0.00341983       0.00198920      -0.03854180
Pt       5.61442796       6.48298327      24.58417384        2      -0.00015074      -0.00394000      -0.03860103
Pt       8.42164224       6.48298339      24.58417376        2       0.00129398      -0.28041160       0.34524554
Pt       0.00000196       0.00000050      26.91822294        1      -0.00000294      -0.00000100      -0.00345349
Pt       2.79399750       0.02739109      26.89925460        1       0.00300388      -0.00788247       0.00157067
Pt       5.62768696       0.02769425      26.89773606        1      -0.00224197      -0.00790605       0.00184317
Pt       1.42095737       2.40579792      26.89769048        1      -0.00572497       0.00589767       0.00183778
Pt       4.21081946       2.43111895      26.92724649        1       0.00000453       0.00000057      -0.00283271
Pt       7.00091538       2.40596801      26.89926921        1       0.00532359       0.00654217       0.00156607
Pt       2.83754950       4.86000004      26.89926247        1      -0.00832571       0.00134191       0.00156393
Pt       5.58381952       4.85986639      26.89771282        1       0.00796908       0.00200698       0.00183723
Pt       8.42164180       4.86223701      27.07653923        1       0.00000210       0.00000209      -0.00621411
O        8.42164128       4.86223672      30.09112826        0      -0.00000018       0.00000019      -0.00719404
C        8.42164155       4.86223706      28.92857605        0       0.00000003       0.00000014       0.00120059
