38
Lattice="8.421641763931781 0.0 0.0 4.2108208819658905 7.293355709136913 0.0 0.0 0.0 46.87624170604845" Properties=species:S:1:pos:R:3:tags:I:1:forces:R:3 charge=0 spin=0 energy=-202.81933402658214 free_energy=-202.81933402658214 stress="0.00962598156183958 -8.908588711165066e-08 2.902146967187491e-09 -8.908588711165066e-08 0.009625992737710476 -7.94795340652854e-08 2.902146967187491e-09 -7.94795340652854e-08 -0.00028528549592010677" pbc="T T T"
Pt      -0.00000000       0.00000021      19.95723433        4       0.00000208      -0.00000213       0.02241126
Pt       2.80721396      -0.00000008      19.95723446        4       0.00640350       0.00542555       0.01950082
Pt       5.61442779      -0.00000016      19.95723449        4      -0.00697201       0.00635428       0.02007405
Pt       1.40360720       2.43111835      19.95723435        4       0.00897894       0.00287398       0.02011623
Pt       4.21082080       2.43111834      19.95723443        4       0.00000270       0.00000211      -0.06861694
Pt       7.01803483       2.43111844      19.95723431        4      -0.00790666       0.00284770       0.01955440
Pt       2.80721405       4.86223724      19.95723403        4       0.00150076      -0.00827363       0.01949365
Pt       5.61442805       4.86223734      19.95723421        4      -0.00200957      -0.00922446       0.02013385
Pt       8.42164144       4.86223725      19.95723437        4       0.00000151      -0.00000460       0.01772917
Pt       1.40360728       0.81037258      22.29206792        3      -0.00114171       0.00609419      -0.06308297
Pt       4.21082126       0.81037248      22.29206794        3      -0.00144246       0.06232126      -0.11478209
Pt       7.01803474       0.81037256      22.29206786        3      -0.00469269      -0.00407268      -0.06309985
Pt       2.80721448       3.24149124      22.29206779        3       0.05470756      -0.02994634      -0.11478418
Pt       5.61442762       3.24149125      22.29206790        3      -0.05326740      -0.03236201      -0.11476949
Pt       8.42164155       3.24149130      22.29206809        3      -0.00413326       0.00290211      -0.02813247
Pt       4.21082091       5.67260997      22.29206801        3       0.00583822      -0.00201562      -0.06332788
Pt       7.01803488       5.67261037      22.29206781        3       0.00457823       0.00219633      -0.02835119
Pt       9.82524819       5.67261065      22.29206808        3      -0.00044336      -0.00512125      -0.02838664
Pt      -0.00000056       1.62074567      24.58417371        2       0.00433639       0.00169868      -0.02886805
Pt       2.80721444       1.62074547      24.58417389        2       0.04006231       0.02277235      -0.12052404
Pt       5.61442780       1.62074536      24.58417372        2      -0.03971385       0.02318294      -0.12043007
Pt       1.40360637       4.05186441      24.58417386        2      -0.23975892       0.13653767       0.35021690
Pt       4.21082088       4.05186402      24.58417378        2      -0.00036363      -0.04597746      -0.12027781
Pt       7.01803505       4.05186404      24.58417403        2       0.23807718       0.13949916       0.35025084
Pt       2.80721282       6.48298342      24.58417366        2      -0.00360248       0.00280553      -0.02862282
Pt       5.61442796       6.48298327      24.58417384        2      -0.00075501      -0.00450741      -0.02866612
Pt       8.42164224       6.48298339      24.58417376        2       0.00170978      -0.27602506       0.35026711
Pt       0.00000586       0.00000403      26.92038320        1      -0.00001403      -0.00001128      -0.01126305
Pt       2.79356940       0.02691306      26.90176344        1       0.00247214      -0.00370715      -0.00881543
Pt       5.62755434       0.02764407      26.90093310        1       0.00014367      -0.00503305      -0.01102842
Pt       1.42098453       2.40593892      26.90089915        1      -0.00444318       0.00238513      -0.01108151
Pt       4.21081423       2.43111533      26.92583437        1       0.00001692       0.00001356       0.00055691
Pt       7.00153966       2.40583645      26.90176299        1       0.00198525       0.00399677      -0.00876306
Pt       2.83735007       4.86061163      26.90176245        1      -0.00444406      -0.00028747      -0.00878162
Pt       5.58392830       4.85977226      26.90091225        1       0.00428827       0.00266000      -0.01104354
Pt       8.42164174       4.86223712      27.07492466        1      -0.00000110       0.00000194      -0.00019919
O        8.42164137       4.86223604      30.08954030        0       0.00000008      -0.00000040       0.00422187
C        8.42164099       4.86223671      28.92711426        0      -0.00000040       0.00000061      -0.00882856
