38
Lattice="8.421641763931781 0.0 0.0 4.2108208819658905 7.293355709136913 0.0 0.0 0.0 46.87624170604845" Properties=species:S:1:pos:R:3:tags:I:1:forces:R:3 charge=0 spin=0 energy=-202.81927489877452 free_energy=-202.81927489877452 stress="0.009581461548805237 -4.455652202750571e-08 2.9238032084322185e-07 -4.455652202750571e-08 0.0095815509557724 8.412078145170199e-09 2.9238032084322185e-07 8.412078145170199e-09 -0.00038856701576150954" pbc="T T T"
Pt      -0.00000000       0.00000021      19.95723433        4       0.00001071      -0.00000208       0.02221459
Pt       2.80721396      -0.00000008      19.95723446        4       0.00642785       0.00545068       0.01953398
Pt       5.61442779      -0.00000016      19.95723449        4      -0.00698809       0.00646432       0.02006324
Pt       1.40360720       2.43111835      19.95723435        4       0.00908438       0.00283758       0.02009645
Pt       4.21082080       2.43111834      19.95723443        4      -0.00001622       0.00000511      -0.06918948
Pt       7.01803483       2.43111844      19.95723431        4      -0.00794430       0.00285345       0.01960135
Pt       2.80721405       4.86223724      19.95723403        4       0.00152262      -0.00830439       0.01952692
Pt       5.61442805       4.86223734      19.95723421        4      -0.00209460      -0.00929844       0.02012609
Pt       8.42164144       4.86223725      19.95723437        4       0.00000600       0.00000011       0.01756289
Pt       1.40360728       0.81037258      22.29206792        3      -0.00111907       0.00598553      -0.06318022
Pt       4.21082126       0.81037248      22.29206794        3      -0.00137263       0.06274780      -0.11445075
Pt       7.01803474       0.81037256      22.29206786        3      -0.00456282      -0.00400338      -0.06318354
Pt       2.80721448       3.24149124      22.29206779        3       0.05505932      -0.03019579      -0.11448183
Pt       5.61442762       3.24149125      22.29206790        3      -0.05364153      -0.03253321      -0.11440241
Pt       8.42164155       3.24149130      22.29206809        3      -0.00398136       0.00294286      -0.02820742
Pt       4.21082091       5.67260997      22.29206801        3       0.00575625      -0.00195145      -0.06339119
Pt       7.01803488       5.67261037      22.29206781        3       0.00456676       0.00205612      -0.02837663
Pt       9.82524819       5.67261065      22.29206808        3      -0.00052200      -0.00501874      -0.02842436
Pt      -0.00000056       1.62074567      24.58417371        2       0.00344857       0.00458732      -0.04006627
Pt       2.80721444       1.62074547      24.58417389        2       0.04150400       0.02367781      -0.12955096
Pt       5.61442780       1.62074536      24.58417372        2      -0.04133900       0.02402970      -0.12947309
Pt       1.40360637       4.05186441      24.58417386        2      -0.23695390       0.13470455       0.34058306
Pt       4.21082088       4.05186402      24.58417378        2      -0.00031839      -0.04765248      -0.12914106
Pt       7.01803505       4.05186404      24.58417403        2       0.23532547       0.13830200       0.34117776
Pt       2.80721282       6.48298342      24.58417366        2      -0.00586859       0.00052570      -0.03972573
Pt       5.61442796       6.48298327      24.58417384        2       0.00205674      -0.00535570      -0.03979611
Pt       8.42164224       6.48298339      24.58417376        2       0.00185544      -0.27287093       0.34080037
Pt      -0.00011789      -0.00003146      26.91542486        1       0.00014164       0.00006462       0.00905051
Pt       2.79360051       0.02772653      26.90049987        1       0.00550572      -0.00819987      -0.00340864
Pt       5.62897977       0.02803850      26.89945007        1      -0.00804972      -0.00813099      -0.00472331
Pt       1.42044534       2.40440571      26.89939580        1      -0.00281827       0.01109721      -0.00467916
Pt       4.21069908       2.43111517      26.92445281        1       0.00016116      -0.00002256       0.00753257
Pt       7.00064226       2.40556730      26.90050482        1       0.00450964       0.00863512      -0.00335750
Pt       2.83802399       4.86004184      26.90057940        1      -0.01023140      -0.00048392      -0.00371727
Pt       5.58283105       4.86088627      26.89952114        1       0.01068608      -0.00296635      -0.00495304
Pt       8.42149345       4.86221762      27.06842060        1       0.00074059       0.00010314      -0.01478724
O        8.42262636       4.86237006      30.08159583        0       0.00030817       0.00004654       0.01059132
C        8.42234705       4.86233796      28.91916868        0      -0.00085509      -0.00012709       0.02620637
