38
Lattice="8.421641763931781 0.0 0.0 4.2108208819658905 7.293355709136913 0.0 0.0 0.0 46.87624170604845" Properties=species:S:1:pos:R:3:tags:I:1:forces:R:3 charge=0 spin=0 energy=-202.8193368876051 free_energy=-202.8193368876051 stress="0.009625978767871857 -8.99427092804217e-08 3.3796347942427474e-09 -8.99427092804217e-08 0.009625994600355625 -8.008815655102808e-08 3.3796347942427474e-09 -8.008815655102808e-08 -0.00028522757929749787" pbc="T T T"
Pt      -0.00000000       0.00000021      19.95723433        4       0.00000198      -0.00000202       0.02241128
Pt       2.80721396      -0.00000008      19.95723446        4       0.00640340       0.00542549       0.01950094
Pt       5.61442779      -0.00000016      19.95723449        4      -0.00697202       0.00635433       0.02007405
Pt       1.40360720       2.43111835      19.95723435        4       0.00897895       0.00287416       0.02011619
Pt       4.21082080       2.43111834      19.95723443        4       0.00000283       0.00000221      -0.06861703
Pt       7.01803483       2.43111844      19.95723431        4      -0.00790677       0.00284785       0.01955440
Pt       2.80721405       4.86223724      19.95723403        4       0.00150087      -0.00827359       0.01949337
Pt       5.61442805       4.86223734      19.95723421        4      -0.00200961      -0.00922467       0.02013387
Pt       8.42164144       4.86223725      19.95723437        4       0.00000154      -0.00000478       0.01772909
Pt       1.40360728       0.81037258      22.29206792        3      -0.00114164       0.00609431      -0.06308293
Pt       4.21082126       0.81037248      22.29206794        3      -0.00144238       0.06232129      -0.11478258
Pt       7.01803474       0.81037256      22.29206786        3      -0.00469259      -0.00407274      -0.06309983
Pt       2.80721448       3.24149124      22.29206779        3       0.05470819      -0.02994701      -0.11478513
Pt       5.61442762       3.24149125      22.29206790        3      -0.05326751      -0.03236201      -0.11476968
Pt       8.42164155       3.24149130      22.29206809        3      -0.00413321       0.00290192      -0.02813216
Pt       4.21082091       5.67260997      22.29206801        3       0.00583824      -0.00201564      -0.06332782
Pt       7.01803488       5.67261037      22.29206781        3       0.00457828       0.00219631      -0.02835116
Pt       9.82524819       5.67261065      22.29206808        3      -0.00044318      -0.00512112      -0.02838664
Pt      -0.00000056       1.62074567      24.58417371        2       0.00433641       0.00169897      -0.02886772
Pt       2.80721444       1.62074547      24.58417389        2       0.04006203       0.02277237      -0.12052334
Pt       5.61442780       1.62074536      24.58417372        2      -0.03971354       0.02318284      -0.12042859
Pt       1.40360637       4.05186441      24.58417386        2      -0.23976023       0.13653858       0.35021880
Pt       4.21082088       4.05186402      24.58417378        2      -0.00036369      -0.04597762      -0.12027743
Pt       7.01803505       4.05186404      24.58417403        2       0.23807827       0.13949989       0.35025260
Pt       2.80721282       6.48298342      24.58417366        2      -0.00360291       0.00280554      -0.02862249
Pt       5.61442796       6.48298327      24.58417384        2      -0.00075484      -0.00450740      -0.02866556
Pt       8.42164224       6.48298339      24.58417376        2       0.00170992      -0.27602592       0.35026851
Pt       0.00000596       0.00000405      26.92038306        1      -0.00001377      -0.00001068      -0.01126382
Pt       2.79356948       0.02691290      26.90176357        1       0.00247131      -0.00370502      -0.00881635
Pt       5.62755432       0.02764397      26.90093325        1       0.00014407      -0.00503202      -0.01102918
Pt       1.42098455       2.40593905      26.90089915        1      -0.00444233       0.00238302      -0.01108188
Pt       4.21081425       2.43111541      26.92583421        1       0.00001560       0.00001349       0.00055676
Pt       7.00153977       2.40583661      26.90176308        1       0.00198479       0.00399551      -0.00876375
Pt       2.83735003       4.86061149      26.90176269        1      -0.00444366      -0.00028777      -0.00878170
Pt       5.58392831       4.85977226      26.90091223        1       0.00428870       0.00265992      -0.01104357
Pt       8.42164170       4.86223706      27.07492627        1      -0.00000159       0.00000257      -0.00023600
O        8.42164138       4.86223604      30.08954151        0      -0.00000003       0.00000112       0.00404053
C        8.42164089       4.86223675      28.92711493        0      -0.00000005      -0.00000176      -0.00861406
