38
Lattice="8.421641763931781 0.0 0.0 4.2108208819658905 7.293355709136913 0.0 0.0 0.0 46.87624170604845" Properties=species:S:1:pos:R:3:tags:I:1:forces:R:3 charge=0 spin=0 energy=-202.81936931253185 free_energy=-202.81936931253185 stress="0.009599289856851101 -8.619207392257522e-08 -6.805854546598766e-09 -8.619207392257522e-08 0.009599302895367146 -4.74929109373079e-08 -6.805854546598766e-09 -4.74929109373079e-08 -0.000377253454644233" pbc="T T T"
Pt      -0.00000000       0.00000021      19.95723433        4       0.00000128      -0.00000208       0.02237960
Pt       2.80721396      -0.00000008      19.95723446        4       0.00646091       0.00539687       0.01943699
Pt       5.61442779      -0.00000016      19.95723449        4      -0.00699986       0.00633178       0.01999670
Pt       1.40360720       2.43111835      19.95723435        4       0.00897297       0.00290944       0.02003864
Pt       4.21082080       2.43111834      19.95723443        4       0.00000291       0.00000232      -0.06873699
Pt       7.01803483       2.43111844      19.95723431        4      -0.00791056       0.00291183       0.01949013
Pt       2.80721405       4.86223724      19.95723403        4       0.00144812      -0.00830923       0.01942900
Pt       5.61442805       4.86223734      19.95723421        4      -0.00197647      -0.00923795       0.02005703
Pt       8.42164144       4.86223725      19.95723437        4       0.00000146      -0.00000402       0.01773767
Pt       1.40360728       0.81037258      22.29206792        3      -0.00120244       0.00604261      -0.06352527
Pt       4.21082126       0.81037248      22.29206794        3      -0.00145038       0.06260838      -0.11474465
Pt       7.01803474       0.81037256      22.29206786        3      -0.00461793      -0.00409767      -0.06353785
Pt       2.80721448       3.24149124      22.29206779        3       0.05495854      -0.03008564      -0.11474545
Pt       5.61442762       3.24149125      22.29206790        3      -0.05351355      -0.03251083      -0.11473077
Pt       8.42164155       3.24149130      22.29206809        3      -0.00409159       0.00278525      -0.02736225
Pt       4.21082091       5.67260997      22.29206801        3       0.00582229      -0.00193630      -0.06376949
Pt       7.01803488       5.67261037      22.29206781        3       0.00445497       0.00222005      -0.02758368
Pt       9.82524819       5.67261065      22.29206808        3      -0.00036329      -0.00502481      -0.02761450
Pt      -0.00000056       1.62074567      24.58417371        2       0.00355456       0.00208754      -0.03621874
Pt       2.80721444       1.62074547      24.58417389        2       0.04290483       0.02407587      -0.12517671
Pt       5.61442780       1.62074536      24.58417372        2      -0.04225052       0.02499151      -0.12507002
Pt       1.40360637       4.05186441      24.58417386        2      -0.24147737       0.13794392       0.34257361
Pt       4.21082088       4.05186402      24.58417378        2      -0.00065725      -0.04906923      -0.12490101
Pt       7.01803505       4.05186404      24.58417403        2       0.24014683       0.14028290       0.34261703
Pt       2.80721282       6.48298342      24.58417366        2      -0.00355575       0.00193962      -0.03596244
Pt       5.61442796       6.48298327      24.58417384        2      -0.00004026      -0.00403827      -0.03601722
Pt       8.42164224       6.48298339      24.58417376        2       0.00137059      -0.27821293       0.34261858
Pt       0.00000129       0.00000318      26.91800335        1       0.00000371      -0.00002252      -0.00407079
Pt       2.79462543       0.02692493      26.89992335        1      -0.00255602      -0.00166987      -0.00178522
Pt       5.62717719       0.02720179      26.89843495        1       0.00295281      -0.00160997      -0.00165339
Pt       1.42078381       2.40648768      26.89839305        1      -0.00284581      -0.00176286      -0.00167826
Pt       4.21082077       2.43111614      26.92751910        1      -0.00000673       0.00002279      -0.00440368
Pt       7.00100589       2.40674290      26.89993744        1       0.00272149      -0.00136172      -0.00177377
Pt       2.83682898       4.85969059      26.89993293        1      -0.00013773       0.00304121      -0.00179493
Pt       5.58450659       4.85967093      26.89841479        1      -0.00012447       0.00335566      -0.00167695
Pt       8.42164228       4.86223665      27.07456014        1      -0.00000041       0.00000720      -0.04863235
O        8.42164115       4.86223671      30.08662305        0      -0.00000061       0.00000171       0.02639416
C        8.42164161       4.86223724      28.92432844        0       0.00000075      -0.00000255       0.02439722
