38
Lattice="8.421641763931781 0.0 0.0 4.2108208819658905 7.293355709136913 0.0 0.0 0.0 46.87624170604845" Properties=species:S:1:pos:R:3:tags:I:1:forces:R:3 charge=0 spin=0 energy=-202.81933593393077 free_energy=-202.81933593393077 stress="0.009625982493162155 -9.060299532848148e-08 2.0533139633016617e-09 -9.060299532848148e-08 0.009625997394323349 -8.157760333915576e-08 2.0533139633016617e-09 -8.157760333915576e-08 -0.0002852319157682359" pbc="T T T"
Pt      -0.00000000       0.00000021      19.95723433        4       0.00000201      -0.00000215       0.02241122
Pt       2.80721396      -0.00000008      19.95723446        4       0.00640358       0.00542546       0.01950092
Pt       5.61442779      -0.00000016      19.95723449        4      -0.00697204       0.00635434       0.02007399
Pt       1.40360720       2.43111835      19.95723435        4       0.00897883       0.00287413       0.02011602
Pt       4.21082080       2.43111834      19.95723443        4       0.00000285       0.00000232      -0.06861705
Pt       7.01803483       2.43111844      19.95723431        4      -0.00790679       0.00284784       0.01955425
Pt       2.80721405       4.86223724      19.95723403        4       0.00150099      -0.00827363       0.01949350
Pt       5.61442805       4.86223734      19.95723421        4      -0.00200958      -0.00922461       0.02013370
Pt       8.42164144       4.86223725      19.95723437        4       0.00000147      -0.00000478       0.01772911
Pt       1.40360728       0.81037258      22.29206792        3      -0.00114165       0.00609433      -0.06308299
Pt       4.21082126       0.81037248      22.29206794        3      -0.00144297       0.06232136      -0.11478205
Pt       7.01803474       0.81037256      22.29206786        3      -0.00469282      -0.00407299      -0.06309988
Pt       2.80721448       3.24149124      22.29206779        3       0.05470809      -0.02994709      -0.11478558
Pt       5.61442762       3.24149125      22.29206790        3      -0.05326763      -0.03236206      -0.11476956
Pt       8.42164155       3.24149130      22.29206809        3      -0.00413303       0.00290168      -0.02813264
Pt       4.21082091       5.67260997      22.29206801        3       0.00583808      -0.00201584      -0.06332757
Pt       7.01803488       5.67261037      22.29206781        3       0.00457805       0.00219647      -0.02835109
Pt       9.82524819       5.67261065      22.29206808        3      -0.00044308      -0.00512115      -0.02838670
Pt      -0.00000056       1.62074567      24.58417371        2       0.00433467       0.00169770      -0.02887003
Pt       2.80721444       1.62074547      24.58417389        2       0.04006432       0.02277135      -0.12052699
Pt       5.61442780       1.62074536      24.58417372        2      -0.03971347       0.02318300      -0.12042929
Pt       1.40360637       4.05186441      24.58417386        2      -0.23976064       0.13654029       0.35021755
Pt       4.21082088       4.05186402      24.58417378        2      -0.00036172      -0.04597619      -0.12027352
Pt       7.01803505       4.05186404      24.58417403        2       0.23807620       0.13950002       0.35025385
Pt       2.80721282       6.48298342      24.58417366        2      -0.00360187       0.00280594      -0.02862198
Pt       5.61442796       6.48298327      24.58417384        2      -0.00075544      -0.00450923      -0.02866385
Pt       8.42164224       6.48298339      24.58417376        2       0.00170987      -0.27602637       0.35026890
Pt       0.00000595       0.00000406      26.92038300        1      -0.00001417      -0.00001324      -0.01126452
Pt       2.79356950       0.02691296      26.90176354        1       0.00247143      -0.00370739      -0.00881559
Pt       5.62755431       0.02764390      26.90093286        1       0.00014428      -0.00503089      -0.01102857
Pt       1.42098452       2.40593899      26.90089891        1      -0.00444273       0.00238367      -0.01107447
Pt       4.21081423       2.43111543      26.92583431        1       0.00001833       0.00001489       0.00055666
Pt       7.00153970       2.40583667      26.90176324        1       0.00198438       0.00399608      -0.00876370
Pt       2.83734989       4.86061151      26.90176232        1      -0.00444045      -0.00028636      -0.00878255
Pt       5.58392838       4.85977219      26.90091239        1       0.00428410       0.00266018      -0.01105030
Pt       8.42164179       4.86223707      27.07492707        1      -0.00000338       0.00000245      -0.00023749
O        8.42164144       4.86223581      30.08954182        0      -0.00000232      -0.00000025       0.00403884
C        8.42164087       4.86223669      28.92711486        0       0.00000407       0.00000059      -0.00861041
