38
Lattice="8.421641763931781 0.0 0.0 4.2108208819658905 7.293355709136913 0.0 0.0 0.0 46.87624170604845" Properties=species:S:1:pos:R:3:tags:I:1:forces:R:3 charge=0 spin=0 energy=-202.8194007837843 free_energy=-202.8194007837843 stress="0.009595617651939392 -8.608620305494696e-08 -5.2951718565452666e-09 -8.608620305494696e-08 0.009595626033842564 -4.569535860809992e-08 -5.2951718565452666e-09 -4.569535860809992e-08 -0.00033147778594866395" pbc="T T T"
Pt      -0.00000000       0.00000021      19.95723433        4       0.00000143      -0.00000227       0.02237982
Pt       2.80721396      -0.00000008      19.95723446        4       0.00647288       0.00543793       0.01939742
Pt       5.61442779      -0.00000016      19.95723449        4      -0.00701197       0.00637140       0.01996549
Pt       1.40360720       2.43111835      19.95723435        4       0.00901362       0.00290010       0.02000762
Pt       4.21082080       2.43111834      19.95723443        4       0.00000286       0.00000219      -0.06854583
Pt       7.01803483       2.43111844      19.95723431        4      -0.00795239       0.00290181       0.01945069
Pt       2.80721405       4.86223724      19.95723403        4       0.00147735      -0.00834024       0.01938968
Pt       5.61442805       4.86223734      19.95723421        4      -0.00200482      -0.00926855       0.02002628
Pt       8.42164144       4.86223725      19.95723437        4       0.00000149      -0.00000401       0.01783466
Pt       1.40360728       0.81037258      22.29206792        3      -0.00120528       0.00606769      -0.06330997
Pt       4.21082126       0.81037248      22.29206794        3      -0.00146205       0.06240416      -0.11424806
Pt       7.01803474       0.81037256      22.29206786        3      -0.00463723      -0.00411307      -0.06332269
Pt       2.80721448       3.24149124      22.29206779        3       0.05478790      -0.02997324      -0.11425024
Pt       5.61442762       3.24149125      22.29206790        3      -0.05333062      -0.03241779      -0.11423357
Pt       8.42164155       3.24149130      22.29206809        3      -0.00413773       0.00279032      -0.02747742
Pt       4.21082091       5.67260997      22.29206801        3       0.00584568      -0.00194594      -0.06355286
Pt       7.01803488       5.67261037      22.29206781        3       0.00448213       0.00225812      -0.02769703
Pt       9.82524819       5.67261065      22.29206808        3      -0.00034353      -0.00506746      -0.02772813
Pt      -0.00000056       1.62074567      24.58417371        2       0.00352224       0.00194081      -0.03879359
Pt       2.80721444       1.62074547      24.58417389        2       0.04375421       0.02445629      -0.12864654
Pt       5.61442780       1.62074536      24.58417372        2      -0.04300321       0.02553356      -0.12852757
Pt       1.40360637       4.05186441      24.58417386        2      -0.24334383       0.13910979       0.34519753
Pt       4.21082088       4.05186402      24.58417378        2      -0.00074971      -0.04999821      -0.12838174
Pt       7.01803505       4.05186404      24.58417403        2       0.24208885       0.14131378       0.34524661
Pt       2.80721282       6.48298342      24.58417366        2      -0.00341807       0.00199162      -0.03854144
Pt       5.61442796       6.48298327      24.58417384        2      -0.00015143      -0.00393926      -0.03859915
Pt       8.42164224       6.48298339      24.58417376        2       0.00129332      -0.28040990       0.34524629
Pt       0.00000179       0.00000039      26.91822451        1      -0.00000050       0.00000038      -0.00345941
Pt       2.79399707       0.02739156      26.89925445        1       0.00300715      -0.00788601       0.00156952
Pt       5.62768755       0.02769487      26.89773570        1      -0.00224565      -0.00791033       0.00184370
Pt       1.42095760       2.40579743      26.89769079        1      -0.00572549       0.00589855       0.00183064
Pt       4.21081960       2.43111899      26.92724784        1       0.00000137      -0.00000053      -0.00283844
Pt       7.00091516       2.40596719      26.89926892        1       0.00532841       0.00654718       0.00156757
Pt       2.83755020       4.86000025      26.89926188        1      -0.00833025       0.00134111       0.00157025
Pt       5.58381876       4.85986646      26.89771274        1       0.00797621       0.00200764       0.00183763
Pt       8.42164183       4.86223703      27.07653889        1      -0.00000358       0.00000225      -0.00613120
O        8.42164129       4.86223673      30.09112959        0      -0.00000023      -0.00000011      -0.00720727
C        8.42164148       4.86223701      28.92857660        0       0.00000036       0.00000008       0.00113079
