38
Lattice="8.421641763931781 0.0 0.0 4.2108208819658905 7.293355709136913 0.0 0.0 0.0 46.87624170604845" Properties=species:S:1:pos:R:3:tags:I:1:forces:R:3 charge=0 spin=0 energy=-202.81933402658214 free_energy=-202.81933402658214 stress="0.009625976905226707 -9.063060701919312e-08 1.8485921682298567e-09 -9.063060701919312e-08 0.0096259955316782 -8.205928025972753e-08 1.8485921682298567e-09 -8.205928025972753e-08 -0.00028530688723549247" pbc="T T T"
Pt      -0.00000000       0.00000021      19.95723433        4       0.00000208      -0.00000199       0.02241126
Pt       2.80721396      -0.00000008      19.95723446        4       0.00640365       0.00542542       0.01950096
Pt       5.61442779      -0.00000016      19.95723449        4      -0.00697211       0.00635437       0.02007395
Pt       1.40360720       2.43111835      19.95723435        4       0.00897879       0.00287418       0.02011614
Pt       4.21082080       2.43111834      19.95723443        4       0.00000289       0.00000224      -0.06861676
Pt       7.01803483       2.43111844      19.95723431        4      -0.00790663       0.00284772       0.01955442
Pt       2.80721405       4.86223724      19.95723403        4       0.00150069      -0.00827365       0.01949342
Pt       5.61442805       4.86223734      19.95723421        4      -0.00200959      -0.00922471       0.02013379
Pt       8.42164144       4.86223725      19.95723437        4       0.00000158      -0.00000479       0.01772932
Pt       1.40360728       0.81037258      22.29206792        3      -0.00114163       0.00609438      -0.06308299
Pt       4.21082126       0.81037248      22.29206794        3      -0.00144274       0.06232132      -0.11478217
Pt       7.01803474       0.81037256      22.29206786        3      -0.00469297      -0.00407296      -0.06310011
Pt       2.80721448       3.24149124      22.29206779        3       0.05470807      -0.02994684      -0.11478546
Pt       5.61442762       3.24149125      22.29206790        3      -0.05326749      -0.03236198      -0.11476950
Pt       8.42164155       3.24149130      22.29206809        3      -0.00413329       0.00290187      -0.02813223
Pt       4.21082091       5.67260997      22.29206801        3       0.00583815      -0.00201577      -0.06332788
Pt       7.01803488       5.67261037      22.29206781        3       0.00457821       0.00219625      -0.02835090
Pt       9.82524819       5.67261065      22.29206808        3      -0.00044328      -0.00512138      -0.02838640
Pt      -0.00000056       1.62074567      24.58417371        2       0.00433492       0.00169846      -0.02887035
Pt       2.80721444       1.62074547      24.58417389        2       0.04006404       0.02277141      -0.12052734
Pt       5.61442780       1.62074536      24.58417372        2      -0.03971377       0.02318251      -0.12042985
Pt       1.40360637       4.05186441      24.58417386        2      -0.23976129       0.13654102       0.35021874
Pt       4.21082088       4.05186402      24.58417378        2      -0.00036369      -0.04597734      -0.12027710
Pt       7.01803505       4.05186404      24.58417403        2       0.23807895       0.13950035       0.35025492
Pt       2.80721282       6.48298342      24.58417366        2      -0.00360253       0.00280558      -0.02862164
Pt       5.61442796       6.48298327      24.58417384        2      -0.00075470      -0.00450788      -0.02866608
Pt       8.42164224       6.48298339      24.58417376        2       0.00171015      -0.27602741       0.35027027
Pt       0.00000594       0.00000406      26.92038288        1      -0.00001497      -0.00001244      -0.01126405
Pt       2.79356922       0.02691333      26.90176350        1       0.00247403      -0.00371056      -0.00881459
Pt       5.62755451       0.02764422      26.90093297        1       0.00014354      -0.00503453      -0.01102850
Pt       1.42098478       2.40593868      26.90089888        1      -0.00444577       0.00238870      -0.01107391
Pt       4.21081418       2.43111542      26.92583436        1       0.00001846       0.00001437       0.00055746
Pt       7.00153963       2.40583633      26.90176317        1       0.00198561       0.00399811      -0.00876310
Pt       2.83735040       4.86061165      26.90176241        1      -0.00444653      -0.00028633      -0.00878186
Pt       5.58392802       4.85977222      26.90091203        1       0.00429002       0.00265993      -0.01104335
Pt       8.42164176       4.86223698      27.07492734        1      -0.00000043       0.00000250      -0.00024902
O        8.42164142       4.86223578      30.08954222        0       0.00000013       0.00000094       0.00422984
C        8.42164093       4.86223673      28.92711569        0      -0.00000050      -0.00000114      -0.00879947
