38
Lattice="8.421641763931781 0.0 0.0 4.2108208819658905 7.293355709136913 0.0 0.0 0.0 46.87624170604845" Properties=species:S:1:pos:R:3:tags:I:1:forces:R:3 charge=0 spin=0 energy=-202.8193721735548 free_energy=-202.8193721735548 stress="0.009599294513463974 -8.490441416597605e-08 -5.862138774404002e-09 -8.490441416597605e-08 0.009599304758012295 -4.7969443528472766e-08 -5.862138774404002e-09 -4.7969443528472766e-08 -0.0003772055497393012" pbc="T T T"
Pt      -0.00000000       0.00000021      19.95723433        4       0.00000124      -0.00000208       0.02237945
Pt       2.80721396      -0.00000008      19.95723446        4       0.00646076       0.00539691       0.01943722
Pt       5.61442779      -0.00000016      19.95723449        4      -0.00699990       0.00633170       0.01999664
Pt       1.40360720       2.43111835      19.95723435        4       0.00897294       0.00290953       0.02003845
Pt       4.21082080       2.43111834      19.95723443        4       0.00000295       0.00000224      -0.06873664
Pt       7.01803483       2.43111844      19.95723431        4      -0.00791053       0.00291174       0.01949007
Pt       2.80721405       4.86223724      19.95723403        4       0.00144806      -0.00830917       0.01942900
Pt       5.61442805       4.86223734      19.95723421        4      -0.00197652      -0.00923799       0.02005705
Pt       8.42164144       4.86223725      19.95723437        4       0.00000152      -0.00000411       0.01773780
Pt       1.40360728       0.81037258      22.29206792        3      -0.00120219       0.00604258      -0.06352536
Pt       4.21082126       0.81037248      22.29206794        3      -0.00145051       0.06260812      -0.11474500
Pt       7.01803474       0.81037256      22.29206786        3      -0.00461788      -0.00409774      -0.06353778
Pt       2.80721448       3.24149124      22.29206779        3       0.05495863      -0.03008580      -0.11474600
Pt       5.61442762       3.24149125      22.29206790        3      -0.05351341      -0.03251072      -0.11473097
Pt       8.42164155       3.24149130      22.29206809        3      -0.00409150       0.00278517      -0.02736229
Pt       4.21082091       5.67260997      22.29206801        3       0.00582251      -0.00193616      -0.06376932
Pt       7.01803488       5.67261037      22.29206781        3       0.00445497       0.00222020      -0.02758375
Pt       9.82524819       5.67261065      22.29206808        3      -0.00036334      -0.00502477      -0.02761431
Pt      -0.00000056       1.62074567      24.58417371        2       0.00355311       0.00208849      -0.03621558
Pt       2.80721444       1.62074547      24.58417389        2       0.04290380       0.02407587      -0.12517582
Pt       5.61442780       1.62074536      24.58417372        2      -0.04224812       0.02499194      -0.12506628
Pt       1.40360637       4.05186441      24.58417386        2      -0.24147902       0.13794477       0.34257680
Pt       4.21082088       4.05186402      24.58417378        2      -0.00065630      -0.04906875      -0.12490016
Pt       7.01803505       4.05186404      24.58417403        2       0.24014843       0.14028215       0.34262130
Pt       2.80721282       6.48298342      24.58417366        2      -0.00355607       0.00193974      -0.03596163
Pt       5.61442796       6.48298327      24.58417384        2      -0.00004059      -0.00403844      -0.03601709
Pt       8.42164224       6.48298339      24.58417376        2       0.00137100      -0.27821505       0.34262082
Pt       0.00000138       0.00000325      26.91800285        1       0.00000283      -0.00002212      -0.00407128
Pt       2.79462553       0.02692482      26.89992420        1      -0.00255571      -0.00166887      -0.00178477
Pt       5.62717701       0.02720167      26.89843574        1       0.00295376      -0.00160880      -0.00165392
Pt       1.42078380       2.40648787      26.89839271        1      -0.00284682      -0.00176364      -0.00167913
Pt       4.21082068       2.43111609      26.92751870        1      -0.00000585       0.00002192      -0.00440470
Pt       7.00100597       2.40674308      26.89993781        1       0.00272122      -0.00136420      -0.00178117
Pt       2.83682891       4.85969034      26.89993367        1      -0.00013860       0.00304341      -0.00179495
Pt       5.58450682       4.85967088      26.89841477        1      -0.00012605       0.00335495      -0.00167676
Pt       8.42164219       4.86223671      27.07456273        1       0.00000047       0.00000670      -0.04859677
O        8.42164115       4.86223671      30.08662614        0      -0.00000086       0.00000077       0.02638330
C        8.42164159       4.86223720      28.92433134        0       0.00000150      -0.00000065       0.02436355
