38
Lattice="8.421641763931781 0.0 0.0 4.2108208819658905 7.293355709136913 0.0 0.0 0.0 46.87624170604845" Properties=species:S:1:pos:R:3:tags:I:1:forces:R:3 charge=0 spin=0 energy=-202.81927489877452 free_energy=-202.81927489877452 stress="0.009581467136740685 -8.733518086501135e-08 7.907707555432353e-08 -8.733518086501135e-08 0.0095815509557724 -1.664953401814273e-07 7.907707555432353e-08 -1.664953401814273e-07 -0.0003885629994329065" pbc="T T T"
Pt      -0.00000000       0.00000021      19.95723433        4       0.00000474      -0.00000753       0.02221427
Pt       2.80721396      -0.00000008      19.95723446        4       0.00642662       0.00545262       0.01954113
Pt       5.61442779      -0.00000016      19.95723449        4      -0.00699021       0.00646332       0.02006379
Pt       1.40360720       2.43111835      19.95723435        4       0.00908472       0.00283631       0.02010141
Pt       4.21082080       2.43111834      19.95723443        4      -0.00000094       0.00001170      -0.06919014
Pt       7.01803483       2.43111844      19.95723431        4      -0.00794425       0.00284985       0.01959433
Pt       2.80721405       4.86223724      19.95723403        4       0.00151779      -0.00830639       0.01952664
Pt       5.61442805       4.86223734      19.95723421        4      -0.00209596      -0.00929778       0.02012026
Pt       8.42164144       4.86223725      19.95723437        4       0.00000329      -0.00000488       0.01756284
Pt       1.40360728       0.81037258      22.29206792        3      -0.00113791       0.00597201      -0.06317712
Pt       4.21082126       0.81037248      22.29206794        3      -0.00138898       0.06274328      -0.11442877
Pt       7.01803474       0.81037256      22.29206786        3      -0.00458076      -0.00401376      -0.06318465
Pt       2.80721448       3.24149124      22.29206779        3       0.05504511      -0.03021219      -0.11446983
Pt       5.61442762       3.24149125      22.29206790        3      -0.05364833      -0.03254258      -0.11443679
Pt       8.42164155       3.24149130      22.29206809        3      -0.00399276       0.00292816      -0.02821222
Pt       4.21082091       5.67260997      22.29206801        3       0.00574052      -0.00196398      -0.06339283
Pt       7.01803488       5.67261037      22.29206781        3       0.00455398       0.00204863      -0.02838471
Pt       9.82524819       5.67261065      22.29206808        3      -0.00054055      -0.00503072      -0.02841446
Pt      -0.00000056       1.62074567      24.58417371        2       0.00349548       0.00466163      -0.04005783
Pt       2.80721444       1.62074547      24.58417389        2       0.04157037       0.02371722      -0.12958674
Pt       5.61442780       1.62074536      24.58417372        2      -0.04130181       0.02402266      -0.12946144
Pt       1.40360637       4.05186441      24.58417386        2      -0.23699123       0.13481268       0.34071919
Pt       4.21082088       4.05186402      24.58417378        2      -0.00030461      -0.04760750      -0.12912509
Pt       7.01803505       4.05186404      24.58417403        2       0.23515245       0.13820215       0.34090930
Pt       2.80721282       6.48298342      24.58417366        2      -0.00576940       0.00059272      -0.03972609
Pt       5.61442796       6.48298327      24.58417384        2       0.00212865      -0.00533309      -0.03979209
Pt       8.42164224       6.48298339      24.58417376        2       0.00192986      -0.27297246       0.34094819
Pt      -0.00002895       0.00003191      26.91542400        1       0.00002717      -0.00000886       0.00905254
Pt       2.79369131       0.02777923      26.90049523        1       0.00538184      -0.00823355      -0.00338513
Pt       5.62902873       0.02803108      26.89946008        1      -0.00800120      -0.00793767      -0.00470968
Pt       1.42053260       2.40446226      26.89939235        1      -0.00292983       0.01105057      -0.00468302
Pt       4.21078469       2.43117719      26.92445244        1       0.00005114      -0.00009952       0.00754334
Pt       7.00068085       2.40555542      26.90050455        1       0.00460626       0.00887066      -0.00340330
Pt       2.83804013       4.86010632      26.90058844        1      -0.01006625      -0.00056604      -0.00371466
Pt       5.58283751       4.86094430      26.89951936        1       0.01091037      -0.00303016      -0.00498184
Pt       8.42159946       4.86229358      27.06841612        1       0.00020109      -0.00027176      -0.01478529
O        8.42190438       4.86187036      30.08159274        0       0.00007981      -0.00011515       0.01059098
C        8.42182888       4.86197602      28.91916378        0      -0.00022609       0.00031927       0.02621537
