38
Lattice="8.421641763931781 0.0 0.0 4.2108208819658905 7.293355709136913 0.0 0.0 0.0 46.87624170604845" Properties=species:S:1:pos:R:3:tags:I:1:forces:R:3 charge=0 spin=0 energy=-202.81937121988048 free_energy=-202.81937121988048 stress="0.009599288925528526 -8.263267403663122e-08 -7.4255699367142824e-09 -8.263267403663122e-08 0.009599309414625168 -4.819811749712244e-08 -7.4255699367142824e-09 -4.819811749712244e-08 -0.000377217133063823" pbc="T T T"
Pt      -0.00000000       0.00000021      19.95723433        4       0.00000140      -0.00000216       0.02237950
Pt       2.80721396      -0.00000008      19.95723446        4       0.00646081       0.00539698       0.01943703
Pt       5.61442779      -0.00000016      19.95723449        4      -0.00699997       0.00633165       0.01999653
Pt       1.40360720       2.43111835      19.95723435        4       0.00897283       0.00290931       0.02003873
Pt       4.21082080       2.43111834      19.95723443        4       0.00000286       0.00000223      -0.06873677
Pt       7.01803483       2.43111844      19.95723431        4      -0.00791063       0.00291179       0.01949034
Pt       2.80721405       4.86223724      19.95723403        4       0.00144817      -0.00830913       0.01942919
Pt       5.61442805       4.86223734      19.95723421        4      -0.00197639      -0.00923785       0.02005715
Pt       8.42164144       4.86223725      19.95723437        4       0.00000147      -0.00000398       0.01773763
Pt       1.40360728       0.81037258      22.29206792        3      -0.00120217       0.00604251      -0.06352577
Pt       4.21082126       0.81037248      22.29206794        3      -0.00145043       0.06260806      -0.11474466
Pt       7.01803474       0.81037256      22.29206786        3      -0.00461787      -0.00409769      -0.06353772
Pt       2.80721448       3.24149124      22.29206779        3       0.05495841      -0.03008556      -0.11474542
Pt       5.61442762       3.24149125      22.29206790        3      -0.05351334      -0.03251077      -0.11473083
Pt       8.42164155       3.24149130      22.29206809        3      -0.00409148       0.00278521      -0.02736233
Pt       4.21082091       5.67260997      22.29206801        3       0.00582254      -0.00193611      -0.06376939
Pt       7.01803488       5.67261037      22.29206781        3       0.00445492       0.00222021      -0.02758377
Pt       9.82524819       5.67261065      22.29206808        3      -0.00036330      -0.00502481      -0.02761455
Pt      -0.00000056       1.62074567      24.58417371        2       0.00355262       0.00208826      -0.03621647
Pt       2.80721444       1.62074547      24.58417389        2       0.04290418       0.02407614      -0.12517591
Pt       5.61442780       1.62074536      24.58417372        2      -0.04224811       0.02499231      -0.12506613
Pt       1.40360637       4.05186441      24.58417386        2      -0.24147753       0.13794409       0.34257394
Pt       4.21082088       4.05186402      24.58417378        2      -0.00065723      -0.04906891      -0.12490098
Pt       7.01803505       4.05186404      24.58417403        2       0.24014702       0.14028189       0.34261876
Pt       2.80721282       6.48298342      24.58417366        2      -0.00355596       0.00193965      -0.03596200
Pt       5.61442796       6.48298327      24.58417384        2      -0.00004065      -0.00403885      -0.03601719
Pt       8.42164224       6.48298339      24.58417376        2       0.00137089      -0.27821353       0.34261873
Pt       0.00000127       0.00000338      26.91800318        1       0.00000306      -0.00002310      -0.00407121
Pt       2.79462559       0.02692476      26.89992378        1      -0.00255655      -0.00166840      -0.00178515
Pt       5.62717707       0.02720160      26.89843545        1       0.00295386      -0.00160800      -0.00165371
Pt       1.42078364       2.40648786      26.89839341        1      -0.00284443      -0.00176439      -0.00167849
Pt       4.21082074       2.43111617      26.92751872        1      -0.00000626       0.00002211      -0.00440429
Pt       7.00100605       2.40674317      26.89993777        1       0.00272034      -0.00136513      -0.00178076
Pt       2.83682868       4.85969049      26.89993332        1      -0.00013530       0.00304176      -0.00179497
Pt       5.58450706       4.85967085      26.89841509        1      -0.00012757       0.00335717      -0.00167656
Pt       8.42164216       4.86223662      27.07455989        1      -0.00000021       0.00000689      -0.04859249
O        8.42164122       4.86223669      30.08662343        0      -0.00000044       0.00000045       0.02638178
C        8.42164150       4.86223718      28.92432903        0       0.00000054      -0.00000026       0.02436855
