38
Lattice="8.421641763931781 0.0 0.0 4.2108208819658905 7.293355709136913 0.0 0.0 0.0 46.87624170604845" Properties=species:S:1:pos:R:3:tags:I:1:forces:R:3 charge=0 spin=0 energy=-202.81927775979747 free_energy=-202.81927775979747 stress="0.009581457823514938 -6.362261473213948e-08 1.3577387392160745e-07 -6.362261473213948e-08 0.009581496007740498 2.9610335516849773e-08 1.3577387392160745e-07 2.9610335516849773e-08 -0.0003885056357830763" pbc="T T T"
Pt      -0.00000000       0.00000021      19.95723433        4       0.00000602      -0.00000183       0.02221429
Pt       2.80721396      -0.00000008      19.95723446        4       0.00642553       0.00545278       0.01953517
Pt       5.61442779      -0.00000016      19.95723449        4      -0.00698892       0.00646396       0.02006074
Pt       1.40360720       2.43111835      19.95723435        4       0.00908463       0.00283813       0.02009978
Pt       4.21082080       2.43111834      19.95723443        4      -0.00000727       0.00000111      -0.06919001
Pt       7.01803483       2.43111844      19.95723431        4      -0.00794389       0.00285351       0.01959643
Pt       2.80721405       4.86223724      19.95723403        4       0.00152061      -0.00830568       0.01953021
Pt       5.61442805       4.86223734      19.95723421        4      -0.00209604      -0.00929754       0.02012486
Pt       8.42164144       4.86223725      19.95723437        4       0.00000298      -0.00000067       0.01756261
Pt       1.40360728       0.81037258      22.29206792        3      -0.00113104       0.00598674      -0.06317866
Pt       4.21082126       0.81037248      22.29206794        3      -0.00138516       0.06274946      -0.11445205
Pt       7.01803474       0.81037256      22.29206786        3      -0.00457562      -0.00400011      -0.06318418
Pt       2.80721448       3.24149124      22.29206779        3       0.05505219      -0.03019789      -0.11446266
Pt       5.61442762       3.24149125      22.29206790        3      -0.05364889      -0.03252934      -0.11441758
Pt       8.42164155       3.24149130      22.29206809        3      -0.00398964       0.00294450      -0.02820612
Pt       4.21082091       5.67260997      22.29206801        3       0.00574508      -0.00194785      -0.06339023
Pt       7.01803488       5.67261037      22.29206781        3       0.00455561       0.00205977      -0.02838339
Pt       9.82524819       5.67261065      22.29206808        3      -0.00053389      -0.00501902      -0.02842196
Pt      -0.00000056       1.62074567      24.58417371        2       0.00348381       0.00457059      -0.04006906
Pt       2.80721444       1.62074547      24.58417389        2       0.04153796       0.02368978      -0.12957227
Pt       5.61442780       1.62074536      24.58417372        2      -0.04130379       0.02400997      -0.12946287
Pt       1.40360637       4.05186441      24.58417386        2      -0.23704147       0.13476780       0.34072906
Pt       4.21082088       4.05186402      24.58417378        2      -0.00030954      -0.04766605      -0.12915467
Pt       7.01803505       4.05186404      24.58417403        2       0.23527183       0.13822934       0.34105942
Pt       2.80721282       6.48298342      24.58417366        2      -0.00581024       0.00053562      -0.03973207
Pt       5.61442796       6.48298327      24.58417384        2       0.00211823      -0.00537661      -0.03979817
Pt       8.42164224       6.48298339      24.58417376        2       0.00190250      -0.27284005       0.34075153
Pt      -0.00005624      -0.00004413      26.91542594        1       0.00006604       0.00008787       0.00904618
Pt       2.79364342       0.02774512      26.90049401        1       0.00550103      -0.00830613      -0.00340355
Pt       5.62903273       0.02801577      26.89945206        1      -0.00809460      -0.00807727      -0.00471769
Pt       1.42048509       2.40442397      26.89939541        1      -0.00281308       0.01098914      -0.00466220
Pt       4.21075870       2.43110327      26.92445340        1       0.00008470      -0.00000757       0.00753524
Pt       7.00069158       2.40553810      26.90050570        1       0.00448693       0.00872565      -0.00336818
Pt       2.83803291       4.86003246      26.90057927        1      -0.01010005      -0.00047961      -0.00368667
Pt       5.58283895       4.86087237      26.89951505        1       0.01082550      -0.00294904      -0.00495963
Pt       8.42156693       4.86220270      27.06841555        1       0.00036976       0.00018461      -0.01472969
O        8.42213226       4.86247909      30.08159354        0       0.00014835       0.00007914       0.01039336
C        8.42199085       4.86241498      28.91916442        0      -0.00041626      -0.00021738       0.02636439
