38
Lattice="8.421641763931781 0.0 0.0 4.2108208819658905 7.293355709136913 0.0 0.0 0.0 46.87624170604845" Properties=species:S:1:pos:R:3:tags:I:1:forces:R:3 charge=0 spin=0 energy=-202.8193721735548 free_energy=-202.8193721735548 stress="0.009599285200238228 -8.362689385421618e-08 -7.1935515322252286e-09 -8.362689385421618e-08 0.009599300101399422 -4.7136516911905346e-08 -7.1935515322252286e-09 -4.7136516911905346e-08 -0.0003772499330807477" pbc="T T T"
Pt      -0.00000000       0.00000021      19.95723433        4       0.00000126      -0.00000217       0.02237945
Pt       2.80721396      -0.00000008      19.95723446        4       0.00646086       0.00539706       0.01943707
Pt       5.61442779      -0.00000016      19.95723449        4      -0.00699979       0.00633169       0.01999664
Pt       1.40360720       2.43111835      19.95723435        4       0.00897308       0.00290942       0.02003845
Pt       4.21082080       2.43111834      19.95723443        4       0.00000276       0.00000219      -0.06873687
Pt       7.01803483       2.43111844      19.95723431        4      -0.00791059       0.00291172       0.01948994
Pt       2.80721405       4.86223724      19.95723403        4       0.00144830      -0.00830906       0.01942895
Pt       5.61442805       4.86223734      19.95723421        4      -0.00197646      -0.00923797       0.02005701
Pt       8.42164144       4.86223725      19.95723437        4       0.00000153      -0.00000394       0.01773780
Pt       1.40360728       0.81037258      22.29206792        3      -0.00120253       0.00604263      -0.06352558
Pt       4.21082126       0.81037248      22.29206794        3      -0.00145076       0.06260847      -0.11474489
Pt       7.01803474       0.81037256      22.29206786        3      -0.00461789      -0.00409782      -0.06353776
Pt       2.80721448       3.24149124      22.29206779        3       0.05495857      -0.03008579      -0.11474629
Pt       5.61442762       3.24149125      22.29206790        3      -0.05351361      -0.03251068      -0.11473126
Pt       8.42164155       3.24149130      22.29206809        3      -0.00409167       0.00278518      -0.02736214
Pt       4.21082091       5.67260997      22.29206801        3       0.00582252      -0.00193620      -0.06376950
Pt       7.01803488       5.67261037      22.29206781        3       0.00445487       0.00222017      -0.02758346
Pt       9.82524819       5.67261065      22.29206808        3      -0.00036325      -0.00502491      -0.02761437
Pt      -0.00000056       1.62074567      24.58417371        2       0.00355291       0.00208751      -0.03622011
Pt       2.80721444       1.62074547      24.58417389        2       0.04290621       0.02407504      -0.12517996
Pt       5.61442780       1.62074536      24.58417372        2      -0.04225001       0.02499116      -0.12506990
Pt       1.40360637       4.05186441      24.58417386        2      -0.24147899       0.13794586       0.34257424
Pt       4.21082088       4.05186402      24.58417378        2      -0.00065722      -0.04906875      -0.12490144
Pt       7.01803505       4.05186404      24.58417403        2       0.24014819       0.14028415       0.34261951
Pt       2.80721282       6.48298342      24.58417366        2      -0.00355640       0.00193932      -0.03596223
Pt       5.61442796       6.48298327      24.58417384        2      -0.00003986      -0.00403928      -0.03601713
Pt       8.42164224       6.48298339      24.58417376        2       0.00137046      -0.27821469       0.34262025
Pt       0.00000113       0.00000336      26.91800369        1       0.00000339      -0.00002371      -0.00407109
Pt       2.79462540       0.02692513      26.89992359        1      -0.00255444      -0.00167274      -0.00178479
Pt       5.62717715       0.02720183      26.89843516        1       0.00295217      -0.00161141      -0.00165322
Pt       1.42078400       2.40648756      26.89839247        1      -0.00284871      -0.00176016      -0.00167203
Pt       4.21082062       2.43111614      26.92751938        1      -0.00000594       0.00002264      -0.00440332
Pt       7.00100588       2.40674278      26.89993745        1       0.00272386      -0.00136104      -0.00177383
Pt       2.83682920       4.85969054      26.89993311        1      -0.00013962       0.00304213      -0.00179444
Pt       5.58450651       4.85967075      26.89841431        1      -0.00012262       0.00335795      -0.00167680
Pt       8.42164241       4.86223663      27.07456167        1      -0.00000075       0.00000709      -0.04863651
O        8.42164120       4.86223672      30.08662352        0      -0.00000060       0.00000159       0.02639094
C        8.42164158       4.86223722      28.92432908        0       0.00000086      -0.00000269       0.02439832
