38
Lattice="8.421641763931781 0.0 0.0 4.2108208819658905 7.293355709136913 0.0 0.0 0.0 46.87624170604845" Properties=species:S:1:pos:R:3:tags:I:1:forces:R:3 charge=0 spin=0 energy=-202.81937121988048 free_energy=-202.81937121988048 stress="0.0095992935821414 -8.38676257330917e-08 -7.655706291131992e-09 -8.38676257330917e-08 0.009599302895367146 -4.8692072596168146e-08 -7.655706291131992e-09 -4.8692072596168146e-08 -0.00037730424082838" pbc="T T T"
Pt      -0.00000000       0.00000021      19.95723433        4       0.00000136      -0.00000213       0.02237950
Pt       2.80721396      -0.00000008      19.95723446        4       0.00646081       0.00539700       0.01943705
Pt       5.61442779      -0.00000016      19.95723449        4      -0.00699996       0.00633180       0.01999662
Pt       1.40360720       2.43111835      19.95723435        4       0.00897290       0.00290945       0.02003866
Pt       4.21082080       2.43111834      19.95723443        4       0.00000291       0.00000227      -0.06873675
Pt       7.01803483       2.43111844      19.95723431        4      -0.00791054       0.00291176       0.01949007
Pt       2.80721405       4.86223724      19.95723403        4       0.00144817      -0.00830909       0.01942902
Pt       5.61442805       4.86223734      19.95723421        4      -0.00197653      -0.00923801       0.02005713
Pt       8.42164144       4.86223725      19.95723437        4       0.00000146      -0.00000408       0.01773767
Pt       1.40360728       0.81037258      22.29206792        3      -0.00120237       0.00604253      -0.06352545
Pt       4.21082126       0.81037248      22.29206794        3      -0.00145024       0.06260811      -0.11474465
Pt       7.01803474       0.81037256      22.29206786        3      -0.00461793      -0.00409793      -0.06353773
Pt       2.80721448       3.24149124      22.29206779        3       0.05495841      -0.03008552      -0.11474528
Pt       5.61442762       3.24149125      22.29206790        3      -0.05351343      -0.03251071      -0.11473057
Pt       8.42164155       3.24149130      22.29206809        3      -0.00409159       0.00278535      -0.02736228
Pt       4.21082091       5.67260997      22.29206801        3       0.00582238      -0.00193612      -0.06376953
Pt       7.01803488       5.67261037      22.29206781        3       0.00445501       0.00222002      -0.02758386
Pt       9.82524819       5.67261065      22.29206808        3      -0.00036332      -0.00502477      -0.02761465
Pt      -0.00000056       1.62074567      24.58417371        2       0.00355450       0.00208775      -0.03621896
Pt       2.80721444       1.62074547      24.58417389        2       0.04290459       0.02407622      -0.12517720
Pt       5.61442780       1.62074536      24.58417372        2      -0.04225040       0.02499138      -0.12507035
Pt       1.40360637       4.05186441      24.58417386        2      -0.24147747       0.13794380       0.34257385
Pt       4.21082088       4.05186402      24.58417378        2      -0.00065689      -0.04906901      -0.12490076
Pt       7.01803505       4.05186404      24.58417403        2       0.24014673       0.14028268       0.34261706
Pt       2.80721282       6.48298342      24.58417366        2      -0.00355598       0.00193965      -0.03596234
Pt       5.61442796       6.48298327      24.58417384        2      -0.00004044      -0.00403867      -0.03601772
Pt       8.42164224       6.48298339      24.58417376        2       0.00137052      -0.27821344       0.34261894
Pt       0.00000139       0.00000326      26.91800331        1       0.00000356      -0.00002337      -0.00407039
Pt       2.79462532       0.02692503      26.89992322        1      -0.00255448      -0.00167153      -0.00178445
Pt       5.62717712       0.02720185      26.89843511        1       0.00295253      -0.00161080      -0.00165309
Pt       1.42078390       2.40648758      26.89839310        1      -0.00284729      -0.00176101      -0.00167818
Pt       4.21082073       2.43111605      26.92751889        1      -0.00000577       0.00002301      -0.00440327
Pt       7.00100591       2.40674288      26.89993740        1       0.00272194      -0.00136060      -0.00177368
Pt       2.83682908       4.85969060      26.89993302        1      -0.00013951       0.00304145      -0.00179450
Pt       5.58450669       4.85967103      26.89841472        1      -0.00012304       0.00335574      -0.00167676
Pt       8.42164221       4.86223668      27.07456099        1      -0.00000064       0.00000676      -0.04859859
O        8.42164121       4.86223669      30.08662287        0      -0.00000053       0.00000067       0.02657923
C        8.42164151       4.86223721      28.92433053        0       0.00000069      -0.00000051       0.02417610
