38
Lattice="8.421641763931781 0.0 0.0 4.2108208819658905 7.293355709136913 0.0 0.0 0.0 46.87624170604845" Properties=species:S:1:pos:R:3:tags:I:1:forces:R:3 charge=0 spin=0 energy=-202.81933593393077 free_energy=-202.81933593393077 stress="0.009625986218452454 -9.051461802300764e-08 2.645776708831704e-09 -9.051461802300764e-08 0.009625997394323349 -8.024137088114003e-08 2.645776708831704e-09 -8.024137088114003e-08 -0.00028533375007100403" pbc="T T T"
Pt      -0.00000000       0.00000021      19.95723433        4       0.00000216      -0.00000218       0.02241143
Pt       2.80721396      -0.00000008      19.95723446        4       0.00640349       0.00542565       0.01950103
Pt       5.61442779      -0.00000016      19.95723449        4      -0.00697216       0.00635432       0.02007395
Pt       1.40360720       2.43111835      19.95723435        4       0.00897896       0.00287401       0.02011642
Pt       4.21082080       2.43111834      19.95723443        4       0.00000263       0.00000222      -0.06861684
Pt       7.01803483       2.43111844      19.95723431        4      -0.00790665       0.00284778       0.01955425
Pt       2.80721405       4.86223724      19.95723403        4       0.00150109      -0.00827368       0.01949375
Pt       5.61442805       4.86223734      19.95723421        4      -0.00200977      -0.00922453       0.02013389
Pt       8.42164144       4.86223725      19.95723437        4       0.00000141      -0.00000471       0.01772894
Pt       1.40360728       0.81037258      22.29206792        3      -0.00114183       0.00609404      -0.06308309
Pt       4.21082126       0.81037248      22.29206794        3      -0.00144258       0.06232123      -0.11478237
Pt       7.01803474       0.81037256      22.29206786        3      -0.00469249      -0.00407275      -0.06309999
Pt       2.80721448       3.24149124      22.29206779        3       0.05470721      -0.02994628      -0.11478317
Pt       5.61442762       3.24149125      22.29206790        3      -0.05326761      -0.03236179      -0.11476941
Pt       8.42164155       3.24149130      22.29206809        3      -0.00413304       0.00290177      -0.02813313
Pt       4.21082091       5.67260997      22.29206801        3       0.00583808      -0.00201551      -0.06332792
Pt       7.01803488       5.67261037      22.29206781        3       0.00457818       0.00219661      -0.02835135
Pt       9.82524819       5.67261065      22.29206808        3      -0.00044329      -0.00512121      -0.02838718
Pt      -0.00000056       1.62074567      24.58417371        2       0.00433635       0.00169822      -0.02886809
Pt       2.80721444       1.62074547      24.58417389        2       0.04006228       0.02277212      -0.12052420
Pt       5.61442780       1.62074536      24.58417372        2      -0.03971359       0.02318282      -0.12042885
Pt       1.40360637       4.05186441      24.58417386        2      -0.23975773       0.13653705       0.35021478
Pt       4.21082088       4.05186402      24.58417378        2      -0.00036142      -0.04597646      -0.12027401
Pt       7.01803505       4.05186404      24.58417403        2       0.23807456       0.13949886       0.35025024
Pt       2.80721282       6.48298342      24.58417366        2      -0.00360166       0.00280569      -0.02862170
Pt       5.61442796       6.48298327      24.58417384        2      -0.00075562      -0.00450884      -0.02866370
Pt       8.42164224       6.48298339      24.58417376        2       0.00170961      -0.27602360       0.35026532
Pt       0.00000595       0.00000413      26.92038379        1      -0.00001387      -0.00001289      -0.01126394
Pt       2.79356945       0.02691295      26.90176405        1       0.00247100      -0.00370591      -0.00881568
Pt       5.62755431       0.02764392      26.90093306        1       0.00014442      -0.00503087      -0.01102932
Pt       1.42098450       2.40593905      26.90089940        1      -0.00444226       0.00238199      -0.01108144
Pt       4.21081419       2.43111543      26.92583506        1       0.00001755       0.00001425       0.00055664
Pt       7.00153970       2.40583664      26.90176342        1       0.00198448       0.00399483      -0.00876326
Pt       2.83735005       4.86061156      26.90176255        1      -0.00444127      -0.00028625      -0.00878209
Pt       5.58392844       4.85977215      26.90091271        1       0.00428383       0.00266078      -0.01105011
Pt       8.42164171       4.86223700      27.07492273        1      -0.00000039       0.00000255      -0.00016170
O        8.42164141       4.86223579      30.08953779        0      -0.00000008      -0.00000021       0.00440270
C        8.42164091       4.86223671      28.92711361        0      -0.00000013       0.00000082      -0.00904094
