38
Lattice="8.421641763931781 0.0 0.0 4.2108208819658905 7.293355709136913 0.0 0.0 0.0 46.87624170604845" Properties=species:S:1:pos:R:3:tags:I:1:forces:R:3 charge=0 spin=0 energy=-202.81936931253185 free_energy=-202.81936931253185 stress="0.009599292650818825 -8.413022101194656e-08 -5.2202793199285225e-09 -8.413022101194656e-08 0.009599307551980019 -4.7924867629944856e-08 -5.2202793199285225e-09 -4.7924867629944856e-08 -0.0003773006028495729" pbc="T T T"
Pt      -0.00000000       0.00000021      19.95723433        4       0.00000133      -0.00000221       0.02237950
Pt       2.80721396      -0.00000008      19.95723446        4       0.00646084       0.00539694       0.01943703
Pt       5.61442779      -0.00000016      19.95723449        4      -0.00699992       0.00633181       0.01999653
Pt       1.40360720       2.43111835      19.95723435        4       0.00897292       0.00290946       0.02003873
Pt       4.21082080       2.43111834      19.95723443        4       0.00000293       0.00000227      -0.06873660
Pt       7.01803483       2.43111844      19.95723431        4      -0.00791065       0.00291173       0.01949023
Pt       2.80721405       4.86223724      19.95723403        4       0.00144819      -0.00830916       0.01942906
Pt       5.61442805       4.86223734      19.95723421        4      -0.00197647      -0.00923803       0.02005705
Pt       8.42164144       4.86223725      19.95723437        4       0.00000146      -0.00000408       0.01773767
Pt       1.40360728       0.81037258      22.29206792        3      -0.00120236       0.00604259      -0.06352536
Pt       4.21082126       0.81037248      22.29206794        3      -0.00145043       0.06260838      -0.11474436
Pt       7.01803474       0.81037256      22.29206786        3      -0.00461799      -0.00409780      -0.06353778
Pt       2.80721448       3.24149124      22.29206779        3       0.05495835      -0.03008565      -0.11474536
Pt       5.61442762       3.24149125      22.29206790        3      -0.05351326      -0.03251084      -0.11473093
Pt       8.42164155       3.24149130      22.29206809        3      -0.00409115       0.00278545      -0.02736193
Pt       4.21082091       5.67260997      22.29206801        3       0.00582207      -0.00193609      -0.06376928
Pt       7.01803488       5.67261037      22.29206781        3       0.00445500       0.00222007      -0.02758351
Pt       9.82524819       5.67261065      22.29206808        3      -0.00036314      -0.00502479      -0.02761451
Pt      -0.00000056       1.62074567      24.58417371        2       0.00355454       0.00208737      -0.03621826
Pt       2.80721444       1.62074547      24.58417389        2       0.04290439       0.02407585      -0.12517555
Pt       5.61442780       1.62074536      24.58417372        2      -0.04225036       0.02499133      -0.12506941
Pt       1.40360637       4.05186441      24.58417386        2      -0.24147727       0.13794366       0.34257272
Pt       4.21082088       4.05186402      24.58417378        2      -0.00065739      -0.04906895      -0.12490060
Pt       7.01803505       4.05186404      24.58417403        2       0.24014683       0.14028324       0.34261572
Pt       2.80721282       6.48298342      24.58417366        2      -0.00355555       0.00193992      -0.03596187
Pt       5.61442796       6.48298327      24.58417384        2      -0.00004061      -0.00403830      -0.03601651
Pt       8.42164224       6.48298339      24.58417376        2       0.00137052      -0.27821362       0.34261745
Pt       0.00000125       0.00000322      26.91800346        1       0.00000422      -0.00002365      -0.00407147
Pt       2.79462576       0.02692456      26.89992419        1      -0.00255959      -0.00166717      -0.00178481
Pt       5.62717694       0.02720152      26.89843545        1       0.00295580      -0.00160762      -0.00165335
Pt       1.42078360       2.40648818      26.89839341        1      -0.00284420      -0.00176623      -0.00167885
Pt       4.21082074       2.43111622      26.92751835        1      -0.00000738       0.00002264      -0.00440395
Pt       7.00100600       2.40674322      26.89993755        1       0.00272112      -0.00136556      -0.00177362
Pt       2.83682855       4.85969045      26.89993333        1      -0.00013364       0.00304214      -0.00179537
Pt       5.58450713       4.85967081      26.89841500        1      -0.00012825       0.00335842      -0.00167652
Pt       8.42164226       4.86223660      27.07455973        1      -0.00000131       0.00000641      -0.04859813
O        8.42164114       4.86223670      30.08662223        0      -0.00000057       0.00000067       0.02657635
C        8.42164160       4.86223721      28.92432908        0       0.00000076      -0.00000053       0.02417975
