38
Lattice="8.421641763931781 0.0 0.0 4.2108208819658905 7.293355709136913 0.0 0.0 0.0 46.87624170604845" Properties=species:S:1:pos:R:3:tags:I:1:forces:R:3 charge=0 spin=0 energy=-202.81937121988048 free_energy=-202.81937121988048 stress="0.009599286131560802 -8.191163658466394e-08 -7.685172498383963e-09 -8.191163658466394e-08 0.009599301964044571 -4.786211960094988e-08 -7.685172498383963e-09 -4.786211960094988e-08 -0.00037725354195572436" pbc="T T T"
Pt      -0.00000000       0.00000021      19.95723433        4       0.00000137      -0.00000231       0.02237945
Pt       2.80721396      -0.00000008      19.95723446        4       0.00646081       0.00539697       0.01943699
Pt       5.61442779      -0.00000016      19.95723449        4      -0.00699990       0.00633186       0.01999647
Pt       1.40360720       2.43111835      19.95723435        4       0.00897311       0.00290947       0.02003864
Pt       4.21082080       2.43111834      19.95723443        4       0.00000281       0.00000229      -0.06873666
Pt       7.01803483       2.43111844      19.95723431        4      -0.00791068       0.00291175       0.01949002
Pt       2.80721405       4.86223724      19.95723403        4       0.00144828      -0.00830904       0.01942900
Pt       5.61442805       4.86223734      19.95723421        4      -0.00197649      -0.00923802       0.02005703
Pt       8.42164144       4.86223725      19.95723437        4       0.00000139      -0.00000411       0.01773769
Pt       1.40360728       0.81037258      22.29206792        3      -0.00120257       0.00604257      -0.06352557
Pt       4.21082126       0.81037248      22.29206794        3      -0.00145084       0.06260841      -0.11474472
Pt       7.01803474       0.81037256      22.29206786        3      -0.00461785      -0.00409782      -0.06353760
Pt       2.80721448       3.24149124      22.29206779        3       0.05495861      -0.03008581      -0.11474623
Pt       5.61442762       3.24149125      22.29206790        3      -0.05351365      -0.03251065      -0.11473106
Pt       8.42164155       3.24149130      22.29206809        3      -0.00409172       0.00278526      -0.02736215
Pt       4.21082091       5.67260997      22.29206801        3       0.00582246      -0.00193608      -0.06376927
Pt       7.01803488       5.67261037      22.29206781        3       0.00445486       0.00222012      -0.02758338
Pt       9.82524819       5.67261065      22.29206808        3      -0.00036338      -0.00502475      -0.02761422
Pt      -0.00000056       1.62074567      24.58417371        2       0.00355286       0.00208744      -0.03622010
Pt       2.80721444       1.62074547      24.58417389        2       0.04290623       0.02407507      -0.12518004
Pt       5.61442780       1.62074536      24.58417372        2      -0.04224997       0.02499115      -0.12506987
Pt       1.40360637       4.05186441      24.58417386        2      -0.24147893       0.13794611       0.34257430
Pt       4.21082088       4.05186402      24.58417378        2      -0.00065718      -0.04906879      -0.12490159
Pt       7.01803505       4.05186404      24.58417403        2       0.24014819       0.14028408       0.34261939
Pt       2.80721282       6.48298342      24.58417366        2      -0.00355662       0.00193944      -0.03596176
Pt       5.61442796       6.48298327      24.58417384        2      -0.00003978      -0.00403939      -0.03601710
Pt       8.42164224       6.48298339      24.58417376        2       0.00137056      -0.27821472       0.34262010
Pt       0.00000114       0.00000327      26.91800377        1       0.00000334      -0.00002368      -0.00407124
Pt       2.79462540       0.02692523      26.89992361        1      -0.00255420      -0.00167359      -0.00178462
Pt       5.62717713       0.02720198      26.89843516        1       0.00295253      -0.00161222      -0.00165392
Pt       1.42078408       2.40648747      26.89839247        1      -0.00284887      -0.00175943      -0.00167192
Pt       4.21082072       2.43111606      26.92751921        1      -0.00000555       0.00002286      -0.00440330
Pt       7.00100567       2.40674272      26.89993740        1       0.00272364      -0.00136108      -0.00177391
Pt       2.83682944       4.85969047      26.89993325        1      -0.00014070       0.00304237      -0.00179465
Pt       5.58450634       4.85967080      26.89841434        1      -0.00012213       0.00335789      -0.00167682
Pt       8.42164228       4.86223665      27.07456146        1      -0.00000053       0.00000744      -0.04863672
O        8.42164115       4.86223672      30.08662328        0      -0.00000064       0.00000156       0.02639094
C        8.42164160       4.86223724      28.92432904        0       0.00000094      -0.00000263       0.02439866
