38
Lattice="8.421641763931781 0.0 0.0 4.2108208819658905 7.293355709136913 0.0 0.0 0.0 46.87624170604845" Properties=species:S:1:pos:R:3:tags:I:1:forces:R:3 charge=0 spin=0 energy=-202.81933593393077 free_energy=-202.81933593393077 stress="0.009625990875065327 -9.170951642545333e-08 1.7315817668617228e-09 -9.170951642545333e-08 0.00962599366903305 -8.095607739733168e-08 1.7315817668617228e-09 -8.095607739733168e-08 -0.00028536244644783437" pbc="T T T"
Pt      -0.00000000       0.00000021      19.95723433        4       0.00000198      -0.00000213       0.02241126
Pt       2.80721396      -0.00000008      19.95723446        4       0.00640353       0.00542551       0.01950101
Pt       5.61442779      -0.00000016      19.95723449        4      -0.00697203       0.00635445       0.02007403
Pt       1.40360720       2.43111835      19.95723435        4       0.00897896       0.00287398       0.02011612
Pt       4.21082080       2.43111834      19.95723443        4       0.00000273       0.00000228      -0.06861684
Pt       7.01803483       2.43111844      19.95723431        4      -0.00790664       0.00284784       0.01955425
Pt       2.80721405       4.86223724      19.95723403        4       0.00150109      -0.00827375       0.01949371
Pt       5.61442805       4.86223734      19.95723421        4      -0.00200970      -0.00922456       0.02013400
Pt       8.42164144       4.86223725      19.95723437        4       0.00000138      -0.00000467       0.01772894
Pt       1.40360728       0.81037258      22.29206792        3      -0.00114161       0.00609410      -0.06308283
Pt       4.21082126       0.81037248      22.29206794        3      -0.00144247       0.06232110      -0.11478232
Pt       7.01803474       0.81037256      22.29206786        3      -0.00469260      -0.00407284      -0.06309992
Pt       2.80721448       3.24149124      22.29206779        3       0.05470774      -0.02994656      -0.11478405
Pt       5.61442762       3.24149125      22.29206790        3      -0.05326765      -0.03236198      -0.11476952
Pt       8.42164155       3.24149130      22.29206809        3      -0.00413299       0.00290186      -0.02813270
Pt       4.21082091       5.67260997      22.29206801        3       0.00583808      -0.00201577      -0.06332791
Pt       7.01803488       5.67261037      22.29206781        3       0.00457809       0.00219651      -0.02835127
Pt       9.82524819       5.67261065      22.29206808        3      -0.00044329      -0.00512117      -0.02838697
Pt      -0.00000056       1.62074567      24.58417371        2       0.00433628       0.00169850      -0.02886776
Pt       2.80721444       1.62074547      24.58417389        2       0.04006203       0.02277227      -0.12052407
Pt       5.61442780       1.62074536      24.58417372        2      -0.03971344       0.02318278      -0.12042870
Pt       1.40360637       4.05186441      24.58417386        2      -0.23975873       0.13653772       0.35021648
Pt       4.21082088       4.05186402      24.58417378        2      -0.00036175      -0.04597626      -0.12027337
Pt       7.01803505       4.05186404      24.58417403        2       0.23807572       0.13949952       0.35025203
Pt       2.80721282       6.48298342      24.58417366        2      -0.00360210       0.00280595      -0.02862122
Pt       5.61442796       6.48298327      24.58417384        2      -0.00075537      -0.00450882      -0.02866393
Pt       8.42164224       6.48298339      24.58417376        2       0.00170928      -0.27602515       0.35026634
Pt       0.00000595       0.00000406      26.92038356        1      -0.00001442      -0.00001275      -0.01126445
Pt       2.79356953       0.02691292      26.90176374        1       0.00247009      -0.00370520      -0.00881544
Pt       5.62755417       0.02764392      26.90093319        1       0.00014721      -0.00503031      -0.01102890
Pt       1.42098447       2.40593907      26.90089911        1      -0.00444293       0.00238295      -0.01108156
Pt       4.21081422       2.43111535      26.92583479        1       0.00001749       0.00001505       0.00055638
Pt       7.00153983       2.40583663      26.90176350        1       0.00198442       0.00399522      -0.00876370
Pt       2.83734994       4.86061154      26.90176274        1      -0.00444083      -0.00028687      -0.00878269
Pt       5.58392850       4.85977221      26.90091268        1       0.00428376       0.00266029      -0.01105027
Pt       8.42164167       4.86223710      27.07492395        1      -0.00000091       0.00000039      -0.00020606
O        8.42164145       4.86223583      30.08953825        0       0.00000016      -0.00000014       0.00440915
C        8.42164088       4.86223673      28.92711360        0      -0.00000056       0.00000051      -0.00900693
