38
Lattice="8.421641763931781 0.0 0.0 4.2108208819658905 7.293355709136913 0.0 0.0 0.0 46.87624170604845" Properties=species:S:1:pos:R:3:tags:I:1:forces:R:3 charge=0 spin=0 energy=-202.8192729914259 free_energy=-202.8192729914259 stress="0.009581496939063072 -4.265220354682242e-08 2.9379663146755775e-07 -4.265220354682242e-08 0.009581566788256168 6.657995754721924e-08 2.9379663146755775e-07 6.657995754721924e-08 -0.0003884787147399038" pbc="T T T"
Pt      -0.00000000       0.00000021      19.95723433        4       0.00001074      -0.00000036       0.02221400
Pt       2.80721396      -0.00000008      19.95723446        4       0.00642758       0.00545085       0.01953228
Pt       5.61442779      -0.00000016      19.95723449        4      -0.00698787       0.00646462       0.02006201
Pt       1.40360720       2.43111835      19.95723435        4       0.00908422       0.00283804       0.02009634
Pt       4.21082080       2.43111834      19.95723443        4      -0.00001728       0.00000161      -0.06918988
Pt       7.01803483       2.43111844      19.95723431        4      -0.00794413       0.00285453       0.01960154
Pt       2.80721405       4.86223724      19.95723403        4       0.00152341      -0.00830422       0.01952830
Pt       5.61442805       4.86223734      19.95723421        4      -0.00209487      -0.00929848       0.02012709
Pt       8.42164144       4.86223725      19.95723437        4       0.00000566       0.00000131       0.01756282
Pt       1.40360728       0.81037258      22.29206792        3      -0.00111817       0.00598974      -0.06318074
Pt       4.21082126       0.81037248      22.29206794        3      -0.00137276       0.06275023      -0.11445799
Pt       7.01803474       0.81037256      22.29206786        3      -0.00456278      -0.00399945      -0.06318396
Pt       2.80721448       3.24149124      22.29206779        3       0.05506139      -0.03019243      -0.11447982
Pt       5.61442762       3.24149125      22.29206790        3      -0.05364302      -0.03252948      -0.11439929
Pt       8.42164155       3.24149130      22.29206809        3      -0.00398078       0.00294742      -0.02820634
Pt       4.21082091       5.67260997      22.29206801        3       0.00575625      -0.00194669      -0.06339108
Pt       7.01803488       5.67261037      22.29206781        3       0.00456620       0.00206007      -0.02837757
Pt       9.82524819       5.67261065      22.29206808        3      -0.00052121      -0.00501500      -0.02842665
Pt      -0.00000056       1.62074567      24.58417371        2       0.00344917       0.00456454      -0.04005649
Pt       2.80721444       1.62074547      24.58417389        2       0.04149208       0.02366886      -0.12953936
Pt       5.61442780       1.62074536      24.58417372        2      -0.04133350       0.02402150      -0.12946711
Pt       1.40360637       4.05186441      24.58417386        2      -0.23697177       0.13469428       0.34061173
Pt       4.21082088       4.05186402      24.58417378        2      -0.00031986      -0.04766567      -0.12914547
Pt       7.01803505       4.05186404      24.58417403        2       0.23535152       0.13830134       0.34122059
Pt       2.80721282       6.48298342      24.58417366        2      -0.00587844       0.00050742      -0.03971718
Pt       5.61442796       6.48298327      24.58417384        2       0.00206333      -0.00537014      -0.03978706
Pt       8.42164224       6.48298339      24.58417376        2       0.00185176      -0.27282572       0.34075177
Pt      -0.00012038      -0.00005445      26.91542341        1       0.00015032       0.00009837       0.00905070
Pt       2.79359113       0.02771985      26.90050247        1       0.00553611      -0.00823636      -0.00343237
Pt       5.62898626       0.02803306      26.89945153        1      -0.00808446      -0.00817334      -0.00474025
Pt       1.42043575       2.40439543      26.89940059        1      -0.00279007       0.01107478      -0.00469265
Pt       4.21069660       2.43109317      26.92445196        1       0.00016333       0.00000398       0.00754141
Pt       7.00064817       2.40555937      26.90050840        1       0.00448543       0.00860674      -0.00336375
Pt       2.83802379       4.86001913      26.90058048        1      -0.01023975      -0.00045607      -0.00372457
Pt       5.58283079       4.86086469      26.89952300        1       0.01068212      -0.00294082      -0.00495968
Pt       8.42149064       4.86219051      27.06841767        1       0.00075674       0.00023742      -0.01481764
O        8.42264734       4.86255348      30.08159389        0       0.00031396       0.00010473       0.01040998
C        8.42236106       4.86247009      28.91916423        0      -0.00087068      -0.00028821       0.02642648
