38
Lattice="8.421641763931781 0.0 0.0 4.2108208819658905 7.293355709136913 0.0 0.0 0.0 46.87624170604845" Properties=species:S:1:pos:R:3:tags:I:1:forces:R:3 charge=0 spin=0 energy=-202.81937121988048 free_energy=-202.81937121988048 stress="0.009599282406270504 -8.456955669089439e-08 -8.554351893508283e-09 -8.456955669089439e-08 0.009599298238754272 -4.833518474356424e-08 -8.554351893508283e-09 -4.833518474356424e-08 -0.0003772344207391143" pbc="T T T"
Pt      -0.00000000       0.00000021      19.95723433        4       0.00000135      -0.00000222       0.02237965
Pt       2.80721396      -0.00000008      19.95723446        4       0.00646075       0.00539706       0.01943718
Pt       5.61442779      -0.00000016      19.95723449        4      -0.00699981       0.00633168       0.01999651
Pt       1.40360720       2.43111835      19.95723435        4       0.00897305       0.00290947       0.02003864
Pt       4.21082080       2.43111834      19.95723443        4       0.00000286       0.00000237      -0.06873690
Pt       7.01803483       2.43111844      19.95723431        4      -0.00791049       0.00291167       0.01949004
Pt       2.80721405       4.86223724      19.95723403        4       0.00144830      -0.00830903       0.01942906
Pt       5.61442805       4.86223734      19.95723421        4      -0.00197650      -0.00923793       0.02005707
Pt       8.42164144       4.86223725      19.95723437        4       0.00000144      -0.00000406       0.01773761
Pt       1.40360728       0.81037258      22.29206792        3      -0.00120230       0.00604259      -0.06352617
Pt       4.21082126       0.81037248      22.29206794        3      -0.00145075       0.06260811      -0.11474442
Pt       7.01803474       0.81037256      22.29206786        3      -0.00461802      -0.00409763      -0.06353791
Pt       2.80721448       3.24149124      22.29206779        3       0.05495808      -0.03008558      -0.11474533
Pt       5.61442762       3.24149125      22.29206790        3      -0.05351337      -0.03251077      -0.11473044
Pt       8.42164155       3.24149130      22.29206809        3      -0.00409170       0.00278535      -0.02736226
Pt       4.21082091       5.67260997      22.29206801        3       0.00582212      -0.00193615      -0.06376927
Pt       7.01803488       5.67261037      22.29206781        3       0.00445500       0.00221998      -0.02758341
Pt       9.82524819       5.67261065      22.29206808        3      -0.00036330      -0.00502489      -0.02761459
Pt      -0.00000056       1.62074567      24.58417371        2       0.00355293       0.00208740      -0.03621978
Pt       2.80721444       1.62074547      24.58417389        2       0.04290581       0.02407493      -0.12517941
Pt       5.61442780       1.62074536      24.58417372        2      -0.04224999       0.02499323      -0.12507288
Pt       1.40360637       4.05186441      24.58417386        2      -0.24147758       0.13794531       0.34257165
Pt       4.21082088       4.05186402      24.58417378        2      -0.00065728      -0.04906857      -0.12490129
Pt       7.01803505       4.05186404      24.58417403        2       0.24014702       0.14028367       0.34261701
Pt       2.80721282       6.48298342      24.58417366        2      -0.00355441       0.00193824      -0.03596484
Pt       5.61442796       6.48298327      24.58417384        2      -0.00003963      -0.00403894      -0.03601671
Pt       8.42164224       6.48298339      24.58417376        2       0.00136890      -0.27821466       0.34261677
Pt       0.00000127       0.00000322      26.91800375        1       0.00000434      -0.00002317      -0.00407104
Pt       2.79462545       0.02692496      26.89992328        1      -0.00255635      -0.00167113      -0.00178517
Pt       5.62717720       0.02720188      26.89843455        1       0.00295270      -0.00161078      -0.00164614
Pt       1.42078381       2.40648764      26.89839249        1      -0.00284638      -0.00176294      -0.00167201
Pt       4.21082082       2.43111618      26.92751904        1      -0.00000730       0.00002296      -0.00440347
Pt       7.00100582       2.40674293      26.89993689        1       0.00272329      -0.00136227      -0.00177307
Pt       2.83682905       4.85969057      26.89993267        1      -0.00013737       0.00304124      -0.00179488
Pt       5.58450654       4.85967082      26.89841426        1      -0.00012449       0.00335858      -0.00167667
Pt       8.42164220       4.86223668      27.07456088        1      -0.00000080       0.00000686      -0.04859193
O        8.42164113       4.86223671      30.08662331        0      -0.00000040       0.00000040       0.02638330
C        8.42164167       4.86223715      28.92432930        0       0.00000035      -0.00000030       0.02436584
