38
Lattice="8.421641763931781 0.0 0.0 4.2108208819658905 7.293355709136913 0.0 0.0 0.0 46.87624170604845" Properties=species:S:1:pos:R:3:tags:I:1:forces:R:3 charge=0 spin=0 energy=-202.81939983010997 free_energy=-202.81939983010997 stress="0.009595612995326519 -8.680770235969248e-08 -6.750617398409986e-09 -8.680770235969248e-08 0.009595626033842564 -4.632165584439463e-08 -6.750617398409986e-09 -4.632165584439463e-08 -0.0003315021749585867" pbc="T T T"
Pt      -0.00000000       0.00000021      19.95723433        4       0.00000144      -0.00000245       0.02237988
Pt       2.80721396      -0.00000008      19.95723446        4       0.00647307       0.00543790       0.01939753
Pt       5.61442779      -0.00000016      19.95723449        4      -0.00701195       0.00637150       0.01996564
Pt       1.40360720       2.43111835      19.95723435        4       0.00901365       0.00290036       0.02000758
Pt       4.21082080       2.43111834      19.95723443        4       0.00000272       0.00000217      -0.06854532
Pt       7.01803483       2.43111844      19.95723431        4      -0.00795246       0.00290189       0.01945075
Pt       2.80721405       4.86223724      19.95723403        4       0.00147728      -0.00834030       0.01938979
Pt       5.61442805       4.86223734      19.95723421        4      -0.00200501      -0.00926849       0.02002618
Pt       8.42164144       4.86223725      19.95723437        4       0.00000160      -0.00000401       0.01783470
Pt       1.40360728       0.81037258      22.29206792        3      -0.00120519       0.00606786      -0.06331036
Pt       4.21082126       0.81037248      22.29206794        3      -0.00146229       0.06240385      -0.11424722
Pt       7.01803474       0.81037256      22.29206786        3      -0.00463726      -0.00411300      -0.06332295
Pt       2.80721448       3.24149124      22.29206779        3       0.05478804      -0.02997362      -0.11425038
Pt       5.61442762       3.24149125      22.29206790        3      -0.05333051      -0.03241794      -0.11423356
Pt       8.42164155       3.24149130      22.29206809        3      -0.00413751       0.00279037      -0.02747734
Pt       4.21082091       5.67260997      22.29206801        3       0.00584567      -0.00194603      -0.06355301
Pt       7.01803488       5.67261037      22.29206781        3       0.00448222       0.00225810      -0.02769696
Pt       9.82524819       5.67261065      22.29206808        3      -0.00034356      -0.00506768      -0.02772782
Pt      -0.00000056       1.62074567      24.58417371        2       0.00352091       0.00194016      -0.03879586
Pt       2.80721444       1.62074547      24.58417389        2       0.04375609       0.02445528      -0.12864946
Pt       5.61442780       1.62074536      24.58417372        2      -0.04300327       0.02553338      -0.12852731
Pt       1.40360637       4.05186441      24.58417386        2      -0.24334450       0.13911195       0.34519723
Pt       4.21082088       4.05186402      24.58417378        2      -0.00074991      -0.04999801      -0.12838168
Pt       7.01803505       4.05186404      24.58417403        2       0.24208961       0.14131452       0.34524810
Pt       2.80721282       6.48298342      24.58417366        2      -0.00341872       0.00199136      -0.03854152
Pt       5.61442796       6.48298327      24.58417384        2      -0.00015112      -0.00393938      -0.03859918
Pt       8.42164224       6.48298339      24.58417376        2       0.00129349      -0.28041086       0.34524781
Pt       0.00000190       0.00000044      26.91822425        1      -0.00000154      -0.00000035      -0.00345957
Pt       2.79399699       0.02739150      26.89925440        1       0.00300713      -0.00788529       0.00156940
Pt       5.62768746       0.02769483      26.89773614        1      -0.00224632      -0.00791139       0.00184370
Pt       1.42095755       2.40579751      26.89769055        1      -0.00572585       0.00589994       0.00183755
Pt       4.21081955       2.43111893      26.92724820        1       0.00000172      -0.00000046      -0.00283837
Pt       7.00091520       2.40596730      26.89926878        1       0.00532737       0.00654701       0.00156760
Pt       2.83755016       4.86000018      26.89926179        1      -0.00833164       0.00134134       0.00157014
Pt       5.58381887       4.85986652      26.89771250        1       0.00797549       0.00200751       0.00183784
Pt       8.42164175       4.86223706      27.07653963        1       0.00000133       0.00000276      -0.00617560
O        8.42164126       4.86223673      30.09112891        0       0.00000022      -0.00000011      -0.00720219
C        8.42164156       4.86223700      28.92857733        0      -0.00000028      -0.00000002       0.00116420
