38
Lattice="8.421641763931781 0.0 0.0 4.2108208819658905 7.293355709136913 0.0 0.0 0.0 46.87624170604845" Properties=species:S:1:pos:R:3:tags:I:1:forces:R:3 charge=0 spin=0 energy=-202.81937408090343 free_energy=-202.81937408090343 stress="0.009599283337593079 -8.344162694129409e-08 -7.464809215207424e-09 -8.344162694129409e-08 0.009599304758012295 -4.7938968350536015e-08 -7.464809215207424e-09 -4.7938968350536015e-08 -0.00037733479985035956" pbc="T T T"
Pt      -0.00000000       0.00000021      19.95723433        4       0.00000119      -0.00000201       0.02237956
Pt       2.80721396      -0.00000008      19.95723446        4       0.00646085       0.00539700       0.01943697
Pt       5.61442779      -0.00000016      19.95723449        4      -0.00699990       0.00633174       0.01999651
Pt       1.40360720       2.43111835      19.95723435        4       0.00897292       0.00290955       0.02003852
Pt       4.21082080       2.43111834      19.95723443        4       0.00000285       0.00000230      -0.06873675
Pt       7.01803483       2.43111844      19.95723431        4      -0.00791051       0.00291165       0.01949002
Pt       2.80721405       4.86223724      19.95723403        4       0.00144815      -0.00830913       0.01942898
Pt       5.61442805       4.86223734      19.95723421        4      -0.00197635      -0.00923784       0.02005690
Pt       8.42164144       4.86223725      19.95723437        4       0.00000149      -0.00000409       0.01773774
Pt       1.40360728       0.81037258      22.29206792        3      -0.00120222       0.00604246      -0.06352468
Pt       4.21082126       0.81037248      22.29206794        3      -0.00145075       0.06260854      -0.11474462
Pt       7.01803474       0.81037256      22.29206786        3      -0.00461757      -0.00409801      -0.06353812
Pt       2.80721448       3.24149124      22.29206779        3       0.05495868      -0.03008576      -0.11474633
Pt       5.61442762       3.24149125      22.29206790        3      -0.05351365      -0.03251077      -0.11473104
Pt       8.42164155       3.24149130      22.29206809        3      -0.00409174       0.00278515      -0.02736214
Pt       4.21082091       5.67260997      22.29206801        3       0.00582221      -0.00193602      -0.06376977
Pt       7.01803488       5.67261037      22.29206781        3       0.00445500       0.00222018      -0.02758375
Pt       9.82524819       5.67261065      22.29206808        3      -0.00036317      -0.00502478      -0.02761412
Pt      -0.00000056       1.62074567      24.58417371        2       0.00355274       0.00208748      -0.03622012
Pt       2.80721444       1.62074547      24.58417389        2       0.04290744       0.02407561      -0.12517786
Pt       5.61442780       1.62074536      24.58417372        2      -0.04225155       0.02499177      -0.12506896
Pt       1.40360637       4.05186441      24.58417386        2      -0.24147879       0.13794610       0.34257406
Pt       4.21082088       4.05186402      24.58417378        2      -0.00065888      -0.04907147      -0.12490183
Pt       7.01803505       4.05186404      24.58417403        2       0.24014959       0.14028321       0.34261715
Pt       2.80721282       6.48298342      24.58417366        2      -0.00355656       0.00193936      -0.03596191
Pt       5.61442796       6.48298327      24.58417384        2      -0.00003968      -0.00403705      -0.03601909
Pt       8.42164224       6.48298339      24.58417376        2       0.00137071      -0.27821475       0.34262067
Pt       0.00000110       0.00000336      26.91800394        1       0.00000326      -0.00002355      -0.00407098
Pt       2.79462545       0.02692500      26.89992304        1      -0.00255474      -0.00167178      -0.00178530
Pt       5.62717731       0.02720205      26.89843476        1       0.00295202      -0.00161269      -0.00165330
Pt       1.42078387       2.40648745      26.89839185        1      -0.00284790      -0.00176008      -0.00167184
Pt       4.21082088       2.43111617      26.92752026        1      -0.00000608       0.00002219      -0.00440972
Pt       7.00100571       2.40674267      26.89993676        1       0.00272358      -0.00135994      -0.00177317
Pt       2.83682930       4.85969058      26.89993254        1      -0.00014056       0.00304171      -0.00179446
Pt       5.58450648       4.85967071      26.89841365        1      -0.00012160       0.00335723      -0.00166969
Pt       8.42164214       4.86223666      27.07456183        1      -0.00000053       0.00000673      -0.04864410
O        8.42164124       4.86223673      30.08662311        0      -0.00000031       0.00000047       0.02658466
C        8.42164141       4.86223720      28.92432881        0       0.00000044      -0.00000056       0.02421181
