38
Lattice="8.421641763931781 0.0 0.0 4.2108208819658905 7.293355709136913 0.0 0.0 0.0 46.87624170604845" Properties=species:S:1:pos:R:3:tags:I:1:forces:R:3 charge=0 spin=0 energy=-202.81933593393077 free_energy=-202.81933593393077 stress="0.009625987149775028 -9.164715208953567e-08 1.8564162429512976e-09 -9.164715208953567e-08 0.009625999256968498 -8.053425659682034e-08 1.8564162429512976e-09 -8.053425659682034e-08 -0.00028538849437609315" pbc="T T T"
Pt      -0.00000000       0.00000021      19.95723433        4       0.00000213      -0.00000203       0.02241122
Pt       2.80721396      -0.00000008      19.95723446        4       0.00640357       0.00542571       0.01950096
Pt       5.61442779      -0.00000016      19.95723449        4      -0.00697209       0.00635440       0.02007401
Pt       1.40360720       2.43111835      19.95723435        4       0.00897896       0.00287385       0.02011625
Pt       4.21082080       2.43111834      19.95723443        4       0.00000278       0.00000223      -0.06861692
Pt       7.01803483       2.43111844      19.95723431        4      -0.00790674       0.00284768       0.01955410
Pt       2.80721405       4.86223724      19.95723403        4       0.00150099      -0.00827369       0.01949356
Pt       5.61442805       4.86223734      19.95723421        4      -0.00200969      -0.00922464       0.02013385
Pt       8.42164144       4.86223725      19.95723437        4       0.00000146      -0.00000461       0.01772898
Pt       1.40360728       0.81037258      22.29206792        3      -0.00114155       0.00609429      -0.06308308
Pt       4.21082126       0.81037248      22.29206794        3      -0.00144283       0.06232155      -0.11478243
Pt       7.01803474       0.81037256      22.29206786        3      -0.00469282      -0.00407268      -0.06310019
Pt       2.80721448       3.24149124      22.29206779        3       0.05470773      -0.02994660      -0.11478448
Pt       5.61442762       3.24149125      22.29206790        3      -0.05326773      -0.03236204      -0.11476992
Pt       8.42164155       3.24149130      22.29206809        3      -0.00413311       0.00290208      -0.02813251
Pt       4.21082091       5.67260997      22.29206801        3       0.00583802      -0.00201582      -0.06332800
Pt       7.01803488       5.67261037      22.29206781        3       0.00457833       0.00219635      -0.02835119
Pt       9.82524819       5.67261065      22.29206808        3      -0.00044343      -0.00512153      -0.02838656
Pt      -0.00000056       1.62074567      24.58417371        2       0.00433616       0.00169877      -0.02886728
Pt       2.80721444       1.62074547      24.58417389        2       0.04006262       0.02277204      -0.12052412
Pt       5.61442780       1.62074536      24.58417372        2      -0.03971375       0.02318106      -0.12042727
Pt       1.40360637       4.05186441      24.58417386        2      -0.23975872       0.13653766       0.35021669
Pt       4.21082088       4.05186402      24.58417378        2      -0.00036206      -0.04597649      -0.12027382
Pt       7.01803505       4.05186404      24.58417403        2       0.23807542       0.13949938       0.35025245
Pt       2.80721282       6.48298342      24.58417366        2      -0.00360335       0.00280710      -0.02862051
Pt       5.61442796       6.48298327      24.58417384        2      -0.00075516      -0.00450888      -0.02866339
Pt       8.42164224       6.48298339      24.58417376        2       0.00171107      -0.27602392       0.35026887
Pt       0.00000594       0.00000412      26.92038345        1      -0.00001462      -0.00001250      -0.01126377
Pt       2.79356942       0.02691303      26.90176396        1       0.00247231      -0.00370719      -0.00881568
Pt       5.62755429       0.02764401      26.90093355        1       0.00014452      -0.00503111      -0.01103605
Pt       1.42098464       2.40593892      26.90089940        1      -0.00444364       0.00238545      -0.01108171
Pt       4.21081421       2.43111534      26.92583457        1       0.00001802       0.00001435       0.00055655
Pt       7.00153975       2.40583646      26.90176347        1       0.00198430       0.00399594      -0.00876355
Pt       2.83735022       4.86061168      26.90176280        1      -0.00444253      -0.00028836      -0.00878171
Pt       5.58392825       4.85977216      26.90091287        1       0.00428714       0.00266041      -0.01105069
Pt       8.42164171       4.86223704      27.07492413        1      -0.00000145       0.00000178      -0.00024733
O        8.42164138       4.86223603      30.08953662        0       0.00000014      -0.00000021       0.00441882
C        8.42164090       4.86223672      28.92711346        0      -0.00000061       0.00000024      -0.00897411
