38
Lattice="8.421641763931781 0.0 0.0 4.2108208819658905 7.293355709136913 0.0 0.0 0.0 46.87624170604845" Properties=species:S:1:pos:R:3:tags:I:1:forces:R:3 charge=0 spin=0 energy=-202.81933307290782 free_energy=-202.81933307290782 stress="0.009625985287129879 -9.184714855337006e-08 2.499660478605392e-09 -9.184714855337006e-08 0.009625989943742752 -8.127044992534138e-08 2.499660478605392e-09 -8.127044992534138e-08 -0.00028531631687656045" pbc="T T T"
Pt      -0.00000000       0.00000021      19.95723433        4       0.00000205      -0.00000198       0.02241135
Pt       2.80721396      -0.00000008      19.95723446        4       0.00640346       0.00542562       0.01950105
Pt       5.61442779      -0.00000016      19.95723449        4      -0.00697214       0.00635442       0.02007403
Pt       1.40360720       2.43111835      19.95723435        4       0.00897899       0.00287402       0.02011610
Pt       4.21082080       2.43111834      19.95723443        4       0.00000279       0.00000229      -0.06861694
Pt       7.01803483       2.43111844      19.95723431        4      -0.00790671       0.00284775       0.01955427
Pt       2.80721405       4.86223724      19.95723403        4       0.00150092      -0.00827376       0.01949356
Pt       5.61442805       4.86223734      19.95723421        4      -0.00200963      -0.00922470       0.02013396
Pt       8.42164144       4.86223725      19.95723437        4       0.00000155      -0.00000475       0.01772894
Pt       1.40360728       0.81037258      22.29206792        3      -0.00114154       0.00609414      -0.06308319
Pt       4.21082126       0.81037248      22.29206794        3      -0.00144270       0.06232145      -0.11478257
Pt       7.01803474       0.81037256      22.29206786        3      -0.00469257      -0.00407277      -0.06309986
Pt       2.80721448       3.24149124      22.29206779        3       0.05470774      -0.02994672      -0.11478450
Pt       5.61442762       3.24149125      22.29206790        3      -0.05326780      -0.03236212      -0.11476984
Pt       8.42164155       3.24149130      22.29206809        3      -0.00413300       0.00290181      -0.02813265
Pt       4.21082091       5.67260997      22.29206801        3       0.00583814      -0.00201567      -0.06332781
Pt       7.01803488       5.67261037      22.29206781        3       0.00457796       0.00219644      -0.02835128
Pt       9.82524819       5.67261065      22.29206808        3      -0.00044306      -0.00512118      -0.02838692
Pt      -0.00000056       1.62074567      24.58417371        2       0.00433599       0.00169878      -0.02886731
Pt       2.80721444       1.62074547      24.58417389        2       0.04006206       0.02277220      -0.12052351
Pt       5.61442780       1.62074536      24.58417372        2      -0.03971352       0.02318305      -0.12042919
Pt       1.40360637       4.05186441      24.58417386        2      -0.23975857       0.13653782       0.35021591
Pt       4.21082088       4.05186402      24.58417378        2      -0.00036194      -0.04597631      -0.12027390
Pt       7.01803505       4.05186404      24.58417403        2       0.23807575       0.13949953       0.35025233
Pt       2.80721282       6.48298342      24.58417366        2      -0.00360228       0.00280556      -0.02862242
Pt       5.61442796       6.48298327      24.58417384        2      -0.00075529      -0.00450904      -0.02866386
Pt       8.42164224       6.48298339      24.58417376        2       0.00170973      -0.27602491       0.35026658
Pt       0.00000595       0.00000403      26.92038362        1      -0.00001360      -0.00001139      -0.01126405
Pt       2.79356952       0.02691288      26.90176387        1       0.00247048      -0.00370499      -0.00881602
Pt       5.62755424       0.02764385      26.90093305        1       0.00014457      -0.00503046      -0.01102879
Pt       1.42098451       2.40593911      26.90089906        1      -0.00444271       0.00238250      -0.01108165
Pt       4.21081413       2.43111545      26.92583484        1       0.00001763       0.00001461       0.00055647
Pt       7.00153991       2.40583674      26.90176344        1       0.00198429       0.00399399      -0.00876403
Pt       2.83734984       4.86061150      26.90176257        1      -0.00444027      -0.00028707      -0.00878250
Pt       5.58392843       4.85977222      26.90091267        1       0.00428395       0.00265976      -0.01105053
Pt       8.42164174       4.86223706      27.07492364        1      -0.00000051       0.00000190      -0.00023982
O        8.42164142       4.86223579      30.08953792        0       0.00000030      -0.00000018       0.00422730
C        8.42164093       4.86223671      28.92711343        0      -0.00000079       0.00000039      -0.00878836
