38
Lattice="8.421641763931781 0.0 0.0 4.2108208819658905 7.293355709136913 0.0 0.0 0.0 46.87624170604845" Properties=species:S:1:pos:R:3:tags:I:1:forces:R:3 charge=0 spin=0 energy=-202.8193721735548 free_energy=-202.8193721735548 stress="0.009599299170076847 -8.441398335889971e-08 -6.653285034019518e-09 -8.441398335889971e-08 0.00959931593388319 -4.8687187614859795e-08 -6.653285034019518e-09 -4.8687187614859795e-08 -0.00037716428050771356" pbc="T T T"
Pt      -0.00000000       0.00000021      19.95723433        4       0.00000126      -0.00000217       0.02237962
Pt       2.80721396      -0.00000008      19.95723446        4       0.00646070       0.00539697       0.01943722
Pt       5.61442779      -0.00000016      19.95723449        4      -0.00700010       0.00633186       0.01999649
Pt       1.40360720       2.43111835      19.95723435        4       0.00897287       0.00290961       0.02003885
Pt       4.21082080       2.43111834      19.95723443        4       0.00000295       0.00000222      -0.06873681
Pt       7.01803483       2.43111844      19.95723431        4      -0.00791063       0.00291184       0.01949015
Pt       2.80721405       4.86223724      19.95723403        4       0.00144826      -0.00830913       0.01942906
Pt       5.61442805       4.86223734      19.95723421        4      -0.00197648      -0.00923790       0.02005705
Pt       8.42164144       4.86223725      19.95723437        4       0.00000123      -0.00000419       0.01773784
Pt       1.40360728       0.81037258      22.29206792        3      -0.00120191       0.00604262      -0.06352470
Pt       4.21082126       0.81037248      22.29206794        3      -0.00145035       0.06260817      -0.11474462
Pt       7.01803474       0.81037256      22.29206786        3      -0.00461764      -0.00409809      -0.06353787
Pt       2.80721448       3.24149124      22.29206779        3       0.05495840      -0.03008585      -0.11474605
Pt       5.61442762       3.24149125      22.29206790        3      -0.05351338      -0.03251080      -0.11473047
Pt       8.42164155       3.24149130      22.29206809        3      -0.00409166       0.00278507      -0.02736291
Pt       4.21082091       5.67260997      22.29206801        3       0.00582246      -0.00193642      -0.06376855
Pt       7.01803488       5.67261037      22.29206781        3       0.00445507       0.00222028      -0.02758380
Pt       9.82524819       5.67261065      22.29206808        3      -0.00036277      -0.00502515      -0.02761511
Pt      -0.00000056       1.62074567      24.58417371        2       0.00355286       0.00208833      -0.03621589
Pt       2.80721444       1.62074547      24.58417389        2       0.04290325       0.02407304      -0.12517728
Pt       5.61442780       1.62074536      24.58417372        2      -0.04224783       0.02499181      -0.12507057
Pt       1.40360637       4.05186441      24.58417386        2      -0.24147800       0.13794585       0.34258032
Pt       4.21082088       4.05186402      24.58417378        2      -0.00065703      -0.04906552      -0.12489980
Pt       7.01803505       4.05186404      24.58417403        2       0.24014679       0.14028363       0.34262538
Pt       2.80721282       6.48298342      24.58417366        2      -0.00355581       0.00193764      -0.03595851
Pt       5.61442796       6.48298327      24.58417384        2      -0.00003855      -0.00403913      -0.03601197
Pt       8.42164224       6.48298339      24.58417376        2       0.00136907      -0.27821466       0.34262422
Pt       0.00000112       0.00000330      26.91800256        1       0.00000393      -0.00002469      -0.00407081
Pt       2.79462549       0.02692561      26.89992463        1      -0.00255619      -0.00167683      -0.00179160
Pt       5.62717735       0.02720230      26.89843607        1       0.00295198      -0.00161609      -0.00165299
Pt       1.42078418       2.40648735      26.89839293        1      -0.00285086      -0.00175871      -0.00167756
Pt       4.21082060       2.43111602      26.92751764        1      -0.00000549       0.00002311      -0.00439657
Pt       7.00100559       2.40674245      26.89993835        1       0.00272620      -0.00135662      -0.00178032
Pt       2.83682958       4.85969026      26.89993406        1      -0.00014322       0.00304524      -0.00180186
Pt       5.58450606       4.85967072      26.89841561        1      -0.00011807       0.00335854      -0.00168403
Pt       8.42164230       4.86223671      27.07456206        1      -0.00000146       0.00000651      -0.04855763
O        8.42164121       4.86223672      30.08662704        0      -0.00000033       0.00000005       0.02637906
C        8.42164148       4.86223721      28.92433392        0       0.00000040      -0.00000046       0.02432334
