38
Lattice="8.421641763931781 0.0 0.0 4.2108208819658905 7.293355709136913 0.0 0.0 0.0 46.87624170604845" Properties=species:S:1:pos:R:3:tags:I:1:forces:R:3 charge=0 spin=0 energy=-202.81933307290782 free_energy=-202.81933307290782 stress="0.009625985287129879 -9.008333279325598e-08 3.082623045713717e-09 -9.008333279325598e-08 0.009625996463000774 -8.083819125204172e-08 3.082623045713717e-09 -8.083819125204172e-08 -0.00028520330670289695" pbc="T T T"
Pt      -0.00000000       0.00000021      19.95723433        4       0.00000222      -0.00000212       0.02241124
Pt       2.80721396      -0.00000008      19.95723446        4       0.00640356       0.00542560       0.01950101
Pt       5.61442779      -0.00000016      19.95723449        4      -0.00697209       0.00635435       0.02007405
Pt       1.40360720       2.43111835      19.95723435        4       0.00897894       0.00287408       0.02011612
Pt       4.21082080       2.43111834      19.95723443        4       0.00000284       0.00000238      -0.06861705
Pt       7.01803483       2.43111844      19.95723431        4      -0.00790677       0.00284800       0.01955423
Pt       2.80721405       4.86223724      19.95723403        4       0.00150102      -0.00827379       0.01949371
Pt       5.61442805       4.86223734      19.95723421        4      -0.00200967      -0.00922473       0.02013383
Pt       8.42164144       4.86223725      19.95723437        4       0.00000150      -0.00000475       0.01772911
Pt       1.40360728       0.81037258      22.29206792        3      -0.00114176       0.00609427      -0.06308292
Pt       4.21082126       0.81037248      22.29206794        3      -0.00144282       0.06232133      -0.11478174
Pt       7.01803474       0.81037256      22.29206786        3      -0.00469284      -0.00407289      -0.06309997
Pt       2.80721448       3.24149124      22.29206779        3       0.05470758      -0.02994656      -0.11478410
Pt       5.61442762       3.24149125      22.29206790        3      -0.05326766      -0.03236203      -0.11476934
Pt       8.42164155       3.24149130      22.29206809        3      -0.00413303       0.00290177      -0.02813287
Pt       4.21082091       5.67260997      22.29206801        3       0.00583806      -0.00201575      -0.06332766
Pt       7.01803488       5.67261037      22.29206781        3       0.00457800       0.00219639      -0.02835126
Pt       9.82524819       5.67261065      22.29206808        3      -0.00044330      -0.00512130      -0.02838664
Pt      -0.00000056       1.62074567      24.58417371        2       0.00433474       0.00169773      -0.02887023
Pt       2.80721444       1.62074547      24.58417389        2       0.04006429       0.02277126      -0.12052705
Pt       5.61442780       1.62074536      24.58417372        2      -0.03971344       0.02318278      -0.12042914
Pt       1.40360637       4.05186441      24.58417386        2      -0.23975934       0.13653953       0.35021508
Pt       4.21082088       4.05186402      24.58417378        2      -0.00036132      -0.04597621      -0.12027390
Pt       7.01803505       4.05186404      24.58417403        2       0.23807561       0.13949981       0.35025242
Pt       2.80721282       6.48298342      24.58417366        2      -0.00360192       0.00280581      -0.02862202
Pt       5.61442796       6.48298327      24.58417384        2      -0.00075539      -0.00450920      -0.02866376
Pt       8.42164224       6.48298339      24.58417376        2       0.00170966      -0.27602535       0.35026720
Pt       0.00000594       0.00000415      26.92038327        1      -0.00001427      -0.00001387      -0.01126418
Pt       2.79356946       0.02691298      26.90176363        1       0.00247111      -0.00370676      -0.00881553
Pt       5.62755429       0.02764391      26.90093287        1       0.00014469      -0.00503071      -0.01102886
Pt       1.42098443       2.40593898      26.90089885        1      -0.00444135       0.00238411      -0.01107480
Pt       4.21081413       2.43111542      26.92583468        1       0.00001804       0.00001467       0.00055659
Pt       7.00153977       2.40583663      26.90176318        1       0.00198366       0.00399539      -0.00876339
Pt       2.83735004       4.86061149      26.90176242        1      -0.00444120      -0.00028631      -0.00878236
Pt       5.58392849       4.85977220      26.90091239        1       0.00428387       0.00266057      -0.01105031
Pt       8.42164175       4.86223702      27.07492515        1      -0.00000104       0.00000200      -0.00019228
O        8.42164143       4.86223579      30.08954164        0       0.00000007      -0.00000021       0.00403154
C        8.42164093       4.86223671      28.92711483        0      -0.00000060       0.00000059      -0.00864459
