38
Lattice="8.421641763931781 0.0 0.0 4.2108208819658905 7.293355709136913 0.0 0.0 0.0 46.87624170604845" Properties=species:S:1:pos:R:3:tags:I:1:forces:R:3 charge=0 spin=0 energy=-202.81936931253185 free_energy=-202.81936931253185 stress="0.009599289856851101 -8.488692060382164e-08 -7.751090436158847e-09 -8.488692060382164e-08 0.009599306620657444 -4.78954156335476e-08 -7.751090436158847e-09 -4.78954156335476e-08 -0.00037724844878539443" pbc="T T T"
Pt      -0.00000000       0.00000021      19.95723433        4       0.00000123      -0.00000208       0.02237950
Pt       2.80721396      -0.00000008      19.95723446        4       0.00646062       0.00539688       0.01943697
Pt       5.61442779      -0.00000016      19.95723449        4      -0.00699977       0.00633168       0.01999659
Pt       1.40360720       2.43111835      19.95723435        4       0.00897292       0.00290949       0.02003862
Pt       4.21082080       2.43111834      19.95723443        4       0.00000286       0.00000225      -0.06873685
Pt       7.01803483       2.43111844      19.95723431        4      -0.00791054       0.00291168       0.01949002
Pt       2.80721405       4.86223724      19.95723403        4       0.00144805      -0.00830915       0.01942904
Pt       5.61442805       4.86223734      19.95723421        4      -0.00197629      -0.00923795       0.02005684
Pt       8.42164144       4.86223725      19.95723437        4       0.00000152      -0.00000411       0.01773763
Pt       1.40360728       0.81037258      22.29206792        3      -0.00120236       0.00604268      -0.06352536
Pt       4.21082126       0.81037248      22.29206794        3      -0.00145054       0.06260843      -0.11474503
Pt       7.01803474       0.81037256      22.29206786        3      -0.00461802      -0.00409778      -0.06353773
Pt       2.80721448       3.24149124      22.29206779        3       0.05495873      -0.03008593      -0.11474632
Pt       5.61442762       3.24149125      22.29206790        3      -0.05351355      -0.03251089      -0.11473122
Pt       8.42164155       3.24149130      22.29206809        3      -0.00409157       0.00278517      -0.02736226
Pt       4.21082091       5.67260997      22.29206801        3       0.00582227      -0.00193620      -0.06376951
Pt       7.01803488       5.67261037      22.29206781        3       0.00445496       0.00222012      -0.02758337
Pt       9.82524819       5.67261065      22.29206808        3      -0.00036330      -0.00502484      -0.02761440
Pt      -0.00000056       1.62074567      24.58417371        2       0.00355487       0.00208792      -0.03621819
Pt       2.80721444       1.62074547      24.58417389        2       0.04290394       0.02407575      -0.12517585
Pt       5.61442780       1.62074536      24.58417372        2      -0.04224998       0.02499106      -0.12506892
Pt       1.40360637       4.05186441      24.58417386        2      -0.24147883       0.13794473       0.34257561
Pt       4.21082088       4.05186402      24.58417378        2      -0.00065752      -0.04906865      -0.12490058
Pt       7.01803505       4.05186404      24.58417403        2       0.24014857       0.14028393       0.34261870
Pt       2.80721282       6.48298342      24.58417366        2      -0.00355592       0.00193958      -0.03596170
Pt       5.61442796       6.48298327      24.58417384        2      -0.00003981      -0.00403870      -0.03601658
Pt       8.42164224       6.48298339      24.58417376        2       0.00137052      -0.27821466       0.34262067
Pt       0.00000126       0.00000325      26.91800343        1       0.00000388      -0.00002295      -0.00407147
Pt       2.79462561       0.02692490      26.89992372        1      -0.00255606      -0.00166955      -0.00178555
Pt       5.62717709       0.02720172      26.89843494        1       0.00295327      -0.00160925      -0.00165388
Pt       1.42078373       2.40648783      26.89839292        1      -0.00284574      -0.00176413      -0.00167921
Pt       4.21082076       2.43111609      26.92751863        1      -0.00000663       0.00002230      -0.00440423
Pt       7.00100591       2.40674303      26.89993740        1       0.00272129      -0.00136408      -0.00177393
Pt       2.83682892       4.85969050      26.89993312        1      -0.00013747       0.00304150      -0.00179501
Pt       5.58450682       4.85967077      26.89841478        1      -0.00012634       0.00335800      -0.00167665
Pt       8.42164215       4.86223663      27.07456186        1       0.00000030       0.00000763      -0.04863736
O        8.42164113       4.86223672      30.08662500        0      -0.00000054       0.00000062       0.02638924
C        8.42164164       4.86223721      28.92432995        0       0.00000098      -0.00000059       0.02440205
