38
Lattice="8.421641763931781 0.0 0.0 4.2108208819658905 7.293355709136913 0.0 0.0 0.0 46.87624170604845" Properties=species:S:1:pos:R:3:tags:I:1:forces:R:3 charge=0 spin=0 energy=-202.8194007837843 free_energy=-202.8194007837843 stress="0.009595612995326519 -8.318317412658871e-08 -6.609790492717593e-09 -8.318317412658871e-08 0.009595630690455437 -4.699213818071257e-08 -6.609790492717593e-09 -4.699213818071257e-08 -0.0003313769993837923" pbc="T T T"
Pt      -0.00000000       0.00000021      19.95723433        4       0.00000143      -0.00000238       0.02237979
Pt       2.80721396      -0.00000008      19.95723446        4       0.00647295       0.00543779       0.01939725
Pt       5.61442779      -0.00000016      19.95723449        4      -0.00701200       0.00637141       0.01996551
Pt       1.40360720       2.43111835      19.95723435        4       0.00901354       0.00290036       0.02000754
Pt       4.21082080       2.43111834      19.95723443        4       0.00000266       0.00000243      -0.06854578
Pt       7.01803483       2.43111844      19.95723431        4      -0.00795241       0.00290192       0.01945073
Pt       2.80721405       4.86223724      19.95723403        4       0.00147731      -0.00834034       0.01938975
Pt       5.61442805       4.86223734      19.95723421        4      -0.00200487      -0.00926847       0.02002603
Pt       8.42164144       4.86223725      19.95723437        4       0.00000157      -0.00000398       0.01783475
Pt       1.40360728       0.81037258      22.29206792        3      -0.00120527       0.00606775      -0.06331039
Pt       4.21082126       0.81037248      22.29206794        3      -0.00146231       0.06240442      -0.11424837
Pt       7.01803474       0.81037256      22.29206786        3      -0.00463728      -0.00411307      -0.06332260
Pt       2.80721448       3.24149124      22.29206779        3       0.05478800      -0.02997367      -0.11425041
Pt       5.61442762       3.24149125      22.29206790        3      -0.05333080      -0.03241787      -0.11423379
Pt       8.42164155       3.24149130      22.29206809        3      -0.00413757       0.00279034      -0.02747783
Pt       4.21082091       5.67260997      22.29206801        3       0.00584565      -0.00194551      -0.06355325
Pt       7.01803488       5.67261037      22.29206781        3       0.00448198       0.00225800      -0.02769695
Pt       9.82524819       5.67261065      22.29206808        3      -0.00034362      -0.00506770      -0.02772781
Pt      -0.00000056       1.62074567      24.58417371        2       0.00352105       0.00193822      -0.03879379
Pt       2.80721444       1.62074547      24.58417389        2       0.04375709       0.02445575      -0.12864582
Pt       5.61442780       1.62074536      24.58417372        2      -0.04300407       0.02553393      -0.12852331
Pt       1.40360637       4.05186441      24.58417386        2      -0.24334346       0.13911194       0.34519434
Pt       4.21082088       4.05186402      24.58417378        2      -0.00074928      -0.04999895      -0.12837869
Pt       7.01803505       4.05186404      24.58417403        2       0.24208845       0.14131391       0.34524480
Pt       2.80721282       6.48298342      24.58417366        2      -0.00341717       0.00199245      -0.03853852
Pt       5.61442796       6.48298327      24.58417384        2      -0.00015288      -0.00393880      -0.03859593
Pt       8.42164224       6.48298339      24.58417376        2       0.00129374      -0.28040954       0.34524488
Pt       0.00000185       0.00000047      26.91822662        1      -0.00000149      -0.00000120      -0.00346727
Pt       2.79399718       0.02739131      26.89925433        1       0.00300476      -0.00788194       0.00156859
Pt       5.62768708       0.02769456      26.89773575        1      -0.00224103      -0.00790588       0.00184245
Pt       1.42095752       2.40579791      26.89769047        1      -0.00572325       0.00589350       0.00183715
Pt       4.21081950       2.43111899      26.92725011        1       0.00000246      -0.00000094      -0.00284586
Pt       7.00091541       2.40596765      26.89926840        1       0.00532331       0.00654147       0.00156679
Pt       2.83754984       4.86000012      26.89926176        1      -0.00832513       0.00134226       0.00156955
Pt       5.58381935       4.85986628      26.89771253        1       0.00797025       0.00200996       0.00183702
Pt       8.42164183       4.86223704      27.07653857        1      -0.00000260       0.00000306      -0.00619532
O        8.42164130       4.86223674      30.09112884        0      -0.00000038      -0.00000026      -0.00757182
C        8.42164148       4.86223699      28.92857391        0       0.00000063      -0.00000004       0.00156692
