38
Lattice="8.421641763931781 0.0 0.0 4.2108208819658905 7.293355709136913 0.0 0.0 0.0 46.87624170604845" Properties=species:S:1:pos:R:3:tags:I:1:forces:R:3 charge=0 spin=0 energy=-202.8194007837843 free_energy=-202.8194007837843 stress="0.009595614857971668 -8.357488212595854e-08 -6.783458239567608e-09 -8.357488212595854e-08 0.009595631621778011 -4.857583135731147e-08 -6.783458239567608e-09 -4.857583135731147e-08 -0.0003314506611786783" pbc="T T T"
Pt      -0.00000000       0.00000021      19.95723433        4       0.00000130      -0.00000233       0.02237992
Pt       2.80721396      -0.00000008      19.95723446        4       0.00647316       0.00543787       0.01939753
Pt       5.61442779      -0.00000016      19.95723449        4      -0.00701195       0.00637156       0.01996557
Pt       1.40360720       2.43111835      19.95723435        4       0.00901345       0.00290032       0.02000747
Pt       4.21082080       2.43111834      19.95723443        4       0.00000285       0.00000229      -0.06854527
Pt       7.01803483       2.43111844      19.95723431        4      -0.00795231       0.00290181       0.01945069
Pt       2.80721405       4.86223724      19.95723403        4       0.00147736      -0.00834029       0.01938988
Pt       5.61442805       4.86223734      19.95723421        4      -0.00200498      -0.00926831       0.02002601
Pt       8.42164144       4.86223725      19.95723437        4       0.00000134      -0.00000415       0.01783470
Pt       1.40360728       0.81037258      22.29206792        3      -0.00120513       0.00606775      -0.06331010
Pt       4.21082126       0.81037248      22.29206794        3      -0.00146244       0.06240380      -0.11424775
Pt       7.01803474       0.81037256      22.29206786        3      -0.00463749      -0.00411284      -0.06332253
Pt       2.80721448       3.24149124      22.29206779        3       0.05478765      -0.02997346      -0.11424962
Pt       5.61442762       3.24149125      22.29206790        3      -0.05333130      -0.03241819      -0.11423513
Pt       8.42164155       3.24149130      22.29206809        3      -0.00413740       0.00279022      -0.02747746
Pt       4.21082091       5.67260997      22.29206801        3       0.00584575      -0.00194622      -0.06355266
Pt       7.01803488       5.67261037      22.29206781        3       0.00448223       0.00225810      -0.02769689
Pt       9.82524819       5.67261065      22.29206808        3      -0.00034347      -0.00506786      -0.02772788
Pt      -0.00000056       1.62074567      24.58417371        2       0.00352120       0.00193828      -0.03879439
Pt       2.80721444       1.62074547      24.58417389        2       0.04375562       0.02445489      -0.12864865
Pt       5.61442780       1.62074536      24.58417372        2      -0.04300237       0.02553276      -0.12852533
Pt       1.40360637       4.05186441      24.58417386        2      -0.24334443       0.13911232       0.34519637
Pt       4.21082088       4.05186402      24.58417378        2      -0.00074937      -0.04999707      -0.12838019
Pt       7.01803505       4.05186404      24.58417403        2       0.24208961       0.14131445       0.34524620
Pt       2.80721282       6.48298342      24.58417366        2      -0.00341704       0.00199248      -0.03853947
Pt       5.61442796       6.48298327      24.58417384        2      -0.00015322      -0.00393877      -0.03859643
Pt       8.42164224       6.48298339      24.58417376        2       0.00129376      -0.28041109       0.34524596
Pt       0.00000183       0.00000046      26.91822529        1      -0.00000148      -0.00000157      -0.00346740
Pt       2.79399737       0.02739112      26.89925430        1       0.00300485      -0.00788217       0.00157001
Pt       5.62768708       0.02769434      26.89773595        1      -0.00224167      -0.00790524       0.00184332
Pt       1.42095737       2.40579802      26.89769069        1      -0.00572398       0.00589475       0.00183751
Pt       4.21081952       2.43111894      26.92724832        1       0.00000177      -0.00000067      -0.00283943
Pt       7.00091540       2.40596783      26.89926888        1       0.00532450       0.00654208       0.00156730
Pt       2.83754959       4.86000012      26.89926225        1      -0.00832492       0.00134217       0.00156923
Pt       5.58381932       4.85986630      26.89771267        1       0.00797139       0.00201000       0.00183765
Pt       8.42164196       4.86223703      27.07653955        1      -0.00000302       0.00000254      -0.00620736
O        8.42164133       4.86223673      30.09112882        0      -0.00000064      -0.00000008      -0.00738319
C        8.42164148       4.86223704      28.92857523        0       0.00000074       0.00000001       0.00138193
