38
Lattice="8.421641763931781 0.0 0.0 4.2108208819658905 7.293355709136913 0.0 0.0 0.0 46.87624170604845" Properties=species:S:1:pos:R:3:tags:I:1:forces:R:3 charge=0 spin=0 energy=-202.81937121988048 free_energy=-202.81937121988048 stress="0.009599301032721996 -8.350951929969597e-08 -6.5040492991386145e-09 -8.350951929969597e-08 0.00959931593388319 -4.8864656321256916e-08 -6.5040492991386145e-09 -4.8864656321256916e-08 -0.0003771376213990152" pbc="T T T"
Pt      -0.00000000       0.00000021      19.95723433        4       0.00000132      -0.00000223       0.02237967
Pt       2.80721396      -0.00000008      19.95723446        4       0.00646083       0.00539691       0.01943703
Pt       5.61442779      -0.00000016      19.95723449        4      -0.00700002       0.00633183       0.01999662
Pt       1.40360720       2.43111835      19.95723435        4       0.00897279       0.00290953       0.02003864
Pt       4.21082080       2.43111834      19.95723443        4       0.00000294       0.00000235      -0.06873684
Pt       7.01803483       2.43111844      19.95723431        4      -0.00791061       0.00291196       0.01949019
Pt       2.80721405       4.86223724      19.95723403        4       0.00144821      -0.00830905       0.01942902
Pt       5.61442805       4.86223734      19.95723421        4      -0.00197639      -0.00923795       0.02005709
Pt       8.42164144       4.86223725      19.95723437        4       0.00000140      -0.00000407       0.01773776
Pt       1.40360728       0.81037258      22.29206792        3      -0.00120245       0.00604256      -0.06352552
Pt       4.21082126       0.81037248      22.29206794        3      -0.00145028       0.06260843      -0.11474510
Pt       7.01803474       0.81037256      22.29206786        3      -0.00461773      -0.00409796      -0.06353755
Pt       2.80721448       3.24149124      22.29206779        3       0.05495878      -0.03008597      -0.11474633
Pt       5.61442762       3.24149125      22.29206790        3      -0.05351359      -0.03251095      -0.11473115
Pt       8.42164155       3.24149130      22.29206809        3      -0.00409136       0.00278487      -0.02736272
Pt       4.21082091       5.67260997      22.29206801        3       0.00582236      -0.00193610      -0.06376909
Pt       7.01803488       5.67261037      22.29206781        3       0.00445508       0.00222015      -0.02758339
Pt       9.82524819       5.67261065      22.29206808        3      -0.00036295      -0.00502488      -0.02761490
Pt      -0.00000056       1.62074567      24.58417371        2       0.00355286       0.00208844      -0.03621503
Pt       2.80721444       1.62074547      24.58417389        2       0.04290415       0.02407414      -0.12517381
Pt       5.61442780       1.62074536      24.58417372        2      -0.04224866       0.02499211      -0.12506743
Pt       1.40360637       4.05186441      24.58417386        2      -0.24147762       0.13794531       0.34257901
Pt       4.21082088       4.05186402      24.58417378        2      -0.00065702      -0.04906678      -0.12489630
Pt       7.01803505       4.05186404      24.58417403        2       0.24014677       0.14028378       0.34262365
Pt       2.80721282       6.48298342      24.58417366        2      -0.00355591       0.00193753      -0.03595822
Pt       5.61442796       6.48298327      24.58417384        2      -0.00003905      -0.00403963      -0.03601199
Pt       8.42164224       6.48298339      24.58417376        2       0.00136936      -0.27821413       0.34262329
Pt       0.00000112       0.00000337      26.91800292        1       0.00000357      -0.00002460      -0.00407162
Pt       2.79462551       0.02692518      26.89992436        1      -0.00255663      -0.00167167      -0.00179215
Pt       5.62717712       0.02720205      26.89843586        1       0.00295326      -0.00161274      -0.00165445
Pt       1.42078403       2.40648756      26.89839299        1      -0.00284759      -0.00176143      -0.00167881
Pt       4.21082075       2.43111612      26.92751798        1      -0.00000613       0.00002288      -0.00440395
Pt       7.00100574       2.40674269      26.89993829        1       0.00272376      -0.00136158      -0.00178108
Pt       2.83682929       4.85969030      26.89993412        1      -0.00013816       0.00304404      -0.00180296
Pt       5.58450658       4.85967076      26.89841557        1      -0.00012460       0.00335799      -0.00168411
Pt       8.42164216       4.86223671      27.07456118        1      -0.00000075       0.00000684      -0.04863014
O        8.42164121       4.86223672      30.08662582        0      -0.00000042       0.00000054       0.02620078
C        8.42164145       4.86223721      28.92433049        0       0.00000057      -0.00000037       0.02458178
