38
Lattice="8.421641763931781 0.0 0.0 4.2108208819658905 7.293355709136913 0.0 0.0 0.0 46.87624170604845" Properties=species:S:1:pos:R:3:tags:I:1:forces:R:3 charge=0 spin=0 energy=-202.81939983010997 free_energy=-202.81939983010997 stress="0.009595620445907116 -8.399465656339089e-08 -5.2977666697984205e-09 -8.399465656339089e-08 0.009595638141036034 -4.693028188285098e-08 -5.2977666697984205e-09 -4.693028188285098e-08 -0.00033143904875032604" pbc="T T T"
Pt      -0.00000000       0.00000021      19.95723433        4       0.00000141      -0.00000243       0.02237975
Pt       2.80721396      -0.00000008      19.95723446        4       0.00647309       0.00543774       0.01939751
Pt       5.61442779      -0.00000016      19.95723449        4      -0.00701200       0.00637151       0.01996562
Pt       1.40360720       2.43111835      19.95723435        4       0.00901355       0.00290032       0.02000762
Pt       4.21082080       2.43111834      19.95723443        4       0.00000273       0.00000238      -0.06854530
Pt       7.01803483       2.43111844      19.95723431        4      -0.00795250       0.00290196       0.01945090
Pt       2.80721405       4.86223724      19.95723403        4       0.00147736      -0.00834027       0.01938966
Pt       5.61442805       4.86223734      19.95723421        4      -0.00200493      -0.00926846       0.02002611
Pt       8.42164144       4.86223725      19.95723437        4       0.00000152      -0.00000410       0.01783475
Pt       1.40360728       0.81037258      22.29206792        3      -0.00120511       0.00606776      -0.06331041
Pt       4.21082126       0.81037248      22.29206794        3      -0.00146210       0.06240373      -0.11424769
Pt       7.01803474       0.81037256      22.29206786        3      -0.00463739      -0.00411298      -0.06332282
Pt       2.80721448       3.24149124      22.29206779        3       0.05478811      -0.02997364      -0.11425047
Pt       5.61442762       3.24149125      22.29206790        3      -0.05333057      -0.03241811      -0.11423371
Pt       8.42164155       3.24149130      22.29206809        3      -0.00413737       0.00279039      -0.02747764
Pt       4.21082091       5.67260997      22.29206801        3       0.00584575      -0.00194574      -0.06355342
Pt       7.01803488       5.67261037      22.29206781        3       0.00448201       0.00225800      -0.02769709
Pt       9.82524819       5.67261065      22.29206808        3      -0.00034350      -0.00506772      -0.02772757
Pt      -0.00000056       1.62074567      24.58417371        2       0.00352124       0.00193864      -0.03879418
Pt       2.80721444       1.62074547      24.58417389        2       0.04375683       0.02445582      -0.12864572
Pt       5.61442780       1.62074536      24.58417372        2      -0.04300402       0.02553368      -0.12852281
Pt       1.40360637       4.05186441      24.58417386        2      -0.24334392       0.13911220       0.34519657
Pt       4.21082088       4.05186402      24.58417378        2      -0.00074930      -0.04999899      -0.12837821
Pt       7.01803505       4.05186404      24.58417403        2       0.24208958       0.14131427       0.34524691
Pt       2.80721282       6.48298342      24.58417366        2      -0.00341777       0.00199225      -0.03853851
Pt       5.61442796       6.48298327      24.58417384        2      -0.00015279      -0.00393852      -0.03859560
Pt       8.42164224       6.48298339      24.58417376        2       0.00129361      -0.28041098       0.34524649
Pt       0.00000180       0.00000046      26.91822642        1      -0.00000189      -0.00000139      -0.00346736
Pt       2.79399717       0.02739135      26.89925430        1       0.00300538      -0.00788323       0.00156887
Pt       5.62768715       0.02769468      26.89773571        1      -0.00224179      -0.00790789       0.00184257
Pt       1.42095754       2.40579786      26.89769021        1      -0.00572450       0.00589628       0.00183700
Pt       4.21081955       2.43111896      26.92725001        1       0.00000181      -0.00000083      -0.00284592
Pt       7.00091535       2.40596756      26.89926841        1       0.00532417       0.00654347       0.00156685
Pt       2.83754983       4.86000020      26.89926178        1      -0.00832838       0.00134207       0.00156931
Pt       5.58381930       4.85986629      26.89771245        1       0.00796954       0.00201012       0.00183753
Pt       8.42164182       4.86223701      27.07653935        1       0.00000218       0.00000297      -0.00620796
O        8.42164131       4.86223673      30.09112978        0      -0.00000022      -0.00000009      -0.00738149
C        8.42164148       4.86223696      28.92857488        0       0.00000037      -0.00000026       0.00137947
