38
Lattice="8.421641763931781 0.0 0.0 4.2108208819658905 7.293355709136913 0.0 0.0 0.0 46.87624170604845" Properties=species:S:1:pos:R:3:tags:I:1:forces:R:3 charge=0 spin=0 energy=-202.81933402658214 free_energy=-202.81933402658214 stress="0.009625994600355625 -9.061288608336326e-08 1.4238137335809142e-09 -9.061288608336326e-08 0.009625994600355625 -8.100555959345002e-08 1.4238137335809142e-09 -8.100555959345002e-08 -0.0002853630867321044" pbc="T T T"
Pt      -0.00000000       0.00000021      19.95723433        4       0.00000211      -0.00000214       0.02241132
Pt       2.80721396      -0.00000008      19.95723446        4       0.00640340       0.00542556       0.01950099
Pt       5.61442779      -0.00000016      19.95723449        4      -0.00697203       0.00635429       0.02007408
Pt       1.40360720       2.43111835      19.95723435        4       0.00897890       0.00287405       0.02011610
Pt       4.21082080       2.43111834      19.95723443        4       0.00000271       0.00000219      -0.06861701
Pt       7.01803483       2.43111844      19.95723431        4      -0.00790672       0.00284779       0.01955425
Pt       2.80721405       4.86223724      19.95723403        4       0.00150089      -0.00827369       0.01949365
Pt       5.61442805       4.86223734      19.95723421        4      -0.00200958      -0.00922457       0.02013393
Pt       8.42164144       4.86223725      19.95723437        4       0.00000153      -0.00000471       0.01772898
Pt       1.40360728       0.81037258      22.29206792        3      -0.00114150       0.00609397      -0.06308313
Pt       4.21082126       0.81037248      22.29206794        3      -0.00144265       0.06232112      -0.11478234
Pt       7.01803474       0.81037256      22.29206786        3      -0.00469269      -0.00407273      -0.06309999
Pt       2.80721448       3.24149124      22.29206779        3       0.05470748      -0.02994656      -0.11478400
Pt       5.61442762       3.24149125      22.29206790        3      -0.05326763      -0.03236213      -0.11476936
Pt       8.42164155       3.24149130      22.29206809        3      -0.00413308       0.00290188      -0.02813273
Pt       4.21082091       5.67260997      22.29206801        3       0.00583802      -0.00201571      -0.06332783
Pt       7.01803488       5.67261037      22.29206781        3       0.00457816       0.00219640      -0.02835107
Pt       9.82524819       5.67261065      22.29206808        3      -0.00044330      -0.00512103      -0.02838689
Pt      -0.00000056       1.62074567      24.58417371        2       0.00433627       0.00169870      -0.02886712
Pt       2.80721444       1.62074547      24.58417389        2       0.04006210       0.02277187      -0.12052348
Pt       5.61442780       1.62074536      24.58417372        2      -0.03971319       0.02318304      -0.12042802
Pt       1.40360637       4.05186441      24.58417386        2      -0.23975867       0.13653798       0.35021621
Pt       4.21082088       4.05186402      24.58417378        2      -0.00036171      -0.04597633      -0.12027339
Pt       7.01803505       4.05186404      24.58417403        2       0.23807567       0.13949937       0.35025197
Pt       2.80721282       6.48298342      24.58417366        2      -0.00360193       0.00280604      -0.02862121
Pt       5.61442796       6.48298327      24.58417384        2      -0.00075518      -0.00450878      -0.02866411
Pt       8.42164224       6.48298339      24.58417376        2       0.00170922      -0.27602524       0.35026634
Pt       0.00000598       0.00000411      26.92038368        1      -0.00001562      -0.00001187      -0.01126441
Pt       2.79356956       0.02691281      26.90176384        1       0.00247018      -0.00370447      -0.00881565
Pt       5.62755418       0.02764376      26.90093318        1       0.00014816      -0.00502855      -0.01102927
Pt       1.42098439       2.40593922      26.90089928        1      -0.00444150       0.00238149      -0.01108198
Pt       4.21081414       2.43111542      26.92583509        1       0.00001827       0.00001453       0.00055594
Pt       7.00154000       2.40583675      26.90176339        1       0.00198137       0.00399238      -0.00876386
Pt       2.83734982       4.86061151      26.90176270        1      -0.00444048      -0.00028669      -0.00878250
Pt       5.58392860       4.85977221      26.90091278        1       0.00428378       0.00266023      -0.01105014
Pt       8.42164177       4.86223708      27.07492448        1      -0.00000043       0.00000171      -0.00020640
O        8.42164140       4.86223605      30.08953843        0       0.00000014      -0.00000015       0.00440949
C        8.42164088       4.86223672      28.92711392        0      -0.00000057       0.00000054      -0.00900685
