38
Lattice="8.421641763931781 0.0 0.0 4.2108208819658905 7.293355709136913 0.0 0.0 0.0 46.87624170604845" Properties=species:S:1:pos:R:3:tags:I:1:forces:R:3 charge=0 spin=0 energy=-202.81927203775157 free_energy=-202.81927203775157 stress="0.009581468999385834 -4.191965530253583e-08 2.0415747314928012e-07 -4.191965530253583e-08 0.009581508114933968 1.425815270295061e-07 2.0415747314928012e-07 1.425815270295061e-07 -0.0003884703910443932" pbc="T T T"
Pt      -0.00000000       0.00000021      19.95723433        4       0.00000788       0.00000159       0.02221453
Pt       2.80721396      -0.00000008      19.95723446        4       0.00642560       0.00545243       0.01953118
Pt       5.61442779      -0.00000016      19.95723449        4      -0.00698782       0.00646443       0.02005927
Pt       1.40360720       2.43111835      19.95723435        4       0.00908447       0.00283896       0.02009819
Pt       4.21082080       2.43111834      19.95723443        4      -0.00001321      -0.00000422      -0.06919006
Pt       7.01803483       2.43111844      19.95723431        4      -0.00794377       0.00285585       0.01959880
Pt       2.80721405       4.86223724      19.95723403        4       0.00152291      -0.00830481       0.01953150
Pt       5.61442805       4.86223734      19.95723421        4      -0.00209593      -0.00929790       0.02012762
Pt       8.42164144       4.86223725      19.95723437        4       0.00000336       0.00000191       0.01756253
Pt       1.40360728       0.81037258      22.29206792        3      -0.00112413       0.00599545      -0.06318001
Pt       4.21082126       0.81037248      22.29206794        3      -0.00138026       0.06275324      -0.11446706
Pt       7.01803474       0.81037256      22.29206786        3      -0.00456978      -0.00399268      -0.06318408
Pt       2.80721448       3.24149124      22.29206779        3       0.05505838      -0.03018920      -0.11446413
Pt       5.61442762       3.24149125      22.29206790        3      -0.05364831      -0.03252277      -0.11440403
Pt       8.42164155       3.24149130      22.29206809        3      -0.00398561       0.00295358      -0.02820190
Pt       4.21082091       5.67260997      22.29206801        3       0.00575027      -0.00193969      -0.06338898
Pt       7.01803488       5.67261037      22.29206781        3       0.00455900       0.00206633      -0.02838155
Pt       9.82524819       5.67261065      22.29206808        3      -0.00052736      -0.00501134      -0.02842627
Pt      -0.00000056       1.62074567      24.58417371        2       0.00346722       0.00452479      -0.04006445
Pt       2.80721444       1.62074547      24.58417389        2       0.04150626       0.02367155      -0.12955616
Pt       5.61442780       1.62074536      24.58417372        2      -0.04130968       0.02400591      -0.12946327
Pt       1.40360637       4.05186441      24.58417386        2      -0.23705168       0.13472563       0.34071165
Pt       4.21082088       4.05186402      24.58417378        2      -0.00031521      -0.04769476      -0.12916601
Pt       7.01803505       4.05186404      24.58417403        2       0.23535779       0.13826050       0.34118503
Pt       2.80721282       6.48298342      24.58417366        2      -0.00584896       0.00049794      -0.03973059
Pt       5.61442796       6.48298327      24.58417384        2       0.00209791      -0.00539777      -0.03979914
Pt       8.42164224       6.48298339      24.58417376        2       0.00187762      -0.27277118       0.34064880
Pt      -0.00008663      -0.00008628      26.91542593        1       0.00010952       0.00014119       0.00904425
Pt       2.79360738       0.02772037      26.90049420        1       0.00556182      -0.00832306      -0.00341522
Pt       5.62902288       0.02801152      26.89944773        1      -0.00813978      -0.00817234      -0.00472768
Pt       1.42044778       2.40439694      26.89939786        1      -0.00274883       0.01097718      -0.00466496
Pt       4.21072896       2.43106226      26.92445416        1       0.00012255       0.00004515       0.00753282
Pt       7.00068381       2.40553452      26.90050798        1       0.00443534       0.00862026      -0.00335866
Pt       2.83802669       4.85999082      26.90057519        1      -0.01015355      -0.00042969      -0.00368591
Pt       5.58283784       4.86083319      26.89951453        1       0.01074363      -0.00290601      -0.00494780
Pt       8.42153054       4.86215197      27.06841800        1       0.00055770       0.00043233      -0.01481060
O        8.42238180       4.86281397      30.08159548        0       0.00022703       0.00018829       0.01020336
C        8.42216916       4.86265694      28.91916465        0      -0.00063266      -0.00051725       0.02662902
