38
Lattice="8.421641763931781 0.0 0.0 4.2108208819658905 7.293355709136913 0.0 0.0 0.0 46.87624170604845" Properties=species:S:1:pos:R:3:tags:I:1:forces:R:3 charge=0 spin=0 energy=-202.81927585244884 free_energy=-202.81927585244884 stress="0.00958142802119255 -4.4325002335199315e-08 2.973730488520232e-07 -4.4325002335199315e-08 0.00958151277154684 1.0587966059460996e-08 2.973730488520232e-07 1.0587966059460996e-08 -0.0003884616889990866" pbc="T T T"
Pt      -0.00000000       0.00000021      19.95723433        4       0.00001096      -0.00000230       0.02221419
Pt       2.80721396      -0.00000008      19.95723446        4       0.00642790       0.00545091       0.01953362
Pt       5.61442779      -0.00000016      19.95723449        4      -0.00698809       0.00646447       0.02006328
Pt       1.40360720       2.43111835      19.95723435        4       0.00908448       0.00283745       0.02009626
Pt       4.21082080       2.43111834      19.95723443        4      -0.00001660       0.00000509      -0.06918963
Pt       7.01803483       2.43111844      19.95723431        4      -0.00794430       0.00285318       0.01960128
Pt       2.80721405       4.86223724      19.95723403        4       0.00152282      -0.00830424       0.01952652
Pt       5.61442805       4.86223734      19.95723421        4      -0.00209471      -0.00929831       0.02012581
Pt       8.42164144       4.86223725      19.95723437        4       0.00000610       0.00000013       0.01756272
Pt       1.40360728       0.81037258      22.29206792        3      -0.00111833       0.00598540      -0.06318002
Pt       4.21082126       0.81037248      22.29206794        3      -0.00137196       0.06274801      -0.11444984
Pt       7.01803474       0.81037256      22.29206786        3      -0.00456247      -0.00400342      -0.06318308
Pt       2.80721448       3.24149124      22.29206779        3       0.05505937      -0.03019555      -0.11448233
Pt       5.61442762       3.24149125      22.29206790        3      -0.05364163      -0.03253385      -0.11440177
Pt       8.42164155       3.24149130      22.29206809        3      -0.00398120       0.00294303      -0.02820778
Pt       4.21082091       5.67260997      22.29206801        3       0.00575660      -0.00195106      -0.06339095
Pt       7.01803488       5.67261037      22.29206781        3       0.00456785       0.00205653      -0.02837602
Pt       9.82524819       5.67261065      22.29206808        3      -0.00052161      -0.00501811      -0.02842470
Pt      -0.00000056       1.62074567      24.58417371        2       0.00344966       0.00458314      -0.04007154
Pt       2.80721444       1.62074547      24.58417389        2       0.04150483       0.02368045      -0.12955599
Pt       5.61442780       1.62074536      24.58417372        2      -0.04134541       0.02403320      -0.12948069
Pt       1.40360637       4.05186441      24.58417386        2      -0.23695274       0.13470122       0.34056786
Pt       4.21082088       4.05186402      24.58417378        2      -0.00031740      -0.04765632      -0.12914683
Pt       7.01803505       4.05186404      24.58417403        2       0.23532917       0.13830559       0.34117326
Pt       2.80721282       6.48298342      24.58417366        2      -0.00586673       0.00052794      -0.03973570
Pt       5.61442796       6.48298327      24.58417384        2       0.00204900      -0.00535427      -0.03980389
Pt       8.42164224       6.48298339      24.58417376        2       0.00185316      -0.27287385       0.34078926
Pt      -0.00012045      -0.00003159      26.91542698        1       0.00014831       0.00006806       0.00904433
Pt       2.79359810       0.02772489      26.90049635        1       0.00550496      -0.00818856      -0.00339301
Pt       5.62897715       0.02803864      26.89944595        1      -0.00804694      -0.00812714      -0.00470944
Pt       1.42044345       2.40440553      26.89939218        1      -0.00281591       0.01109375      -0.00467316
Pt       4.21069642       2.43111522      26.92445499        1       0.00016575      -0.00002242       0.00752523
Pt       7.00064151       2.40556797      26.90050115        1       0.00450589       0.00863159      -0.00334221
Pt       2.83802334       4.86004282      26.90057545        1      -0.01023184      -0.00049061      -0.00370179
Pt       5.58283160       4.86088620      26.89951811        1       0.01067486      -0.00296818      -0.00494352
Pt       8.42149064       4.86221770      27.06841896        1       0.00075431       0.00009926      -0.01476561
O        8.42264613       4.86236949      30.08159897        0       0.00031441       0.00004615       0.01019794
C        8.42236143       4.86233776      28.91916644        0      -0.00087229      -0.00012652       0.02658822
