38
Lattice="8.421641763931781 0.0 0.0 4.2108208819658905 7.293355709136913 0.0 0.0 0.0 46.87624170604845" Properties=species:S:1:pos:R:3:tags:I:1:forces:R:3 charge=0 spin=0 energy=-202.81933402658214 free_energy=-202.81933402658214 stress="0.009625987149775028 -9.027434799691036e-08 2.1270583072663385e-09 -9.027434799691036e-08 0.009625997394323349 -8.046100674619083e-08 2.1270583072663385e-09 -8.046100674619083e-08 -0.00028535848832689226" pbc="T T T"
Pt      -0.00000000       0.00000021      19.95723433        4       0.00000196      -0.00000205       0.02241132
Pt       2.80721396      -0.00000008      19.95723446        4       0.00640347       0.00542546       0.01950090
Pt       5.61442779      -0.00000016      19.95723449        4      -0.00697206       0.00635421       0.02007405
Pt       1.40360720       2.43111835      19.95723435        4       0.00897889       0.00287403       0.02011621
Pt       4.21082080       2.43111834      19.95723443        4       0.00000277       0.00000237      -0.06861701
Pt       7.01803483       2.43111844      19.95723431        4      -0.00790660       0.00284785       0.01955429
Pt       2.80721405       4.86223724      19.95723403        4       0.00150092      -0.00827365       0.01949369
Pt       5.61442805       4.86223734      19.95723421        4      -0.00200956      -0.00922455       0.02013381
Pt       8.42164144       4.86223725      19.95723437        4       0.00000150      -0.00000476       0.01772885
Pt       1.40360728       0.81037258      22.29206792        3      -0.00114156       0.00609411      -0.06308303
Pt       4.21082126       0.81037248      22.29206794        3      -0.00144256       0.06232120      -0.11478249
Pt       7.01803474       0.81037256      22.29206786        3      -0.00469260      -0.00407272      -0.06309999
Pt       2.80721448       3.24149124      22.29206779        3       0.05470767      -0.02994667      -0.11478408
Pt       5.61442762       3.24149125      22.29206790        3      -0.05326767      -0.03236216      -0.11476959
Pt       8.42164155       3.24149130      22.29206809        3      -0.00413290       0.00290180      -0.02813262
Pt       4.21082091       5.67260997      22.29206801        3       0.00583804      -0.00201577      -0.06332787
Pt       7.01803488       5.67261037      22.29206781        3       0.00457815       0.00219655      -0.02835115
Pt       9.82524819       5.67261065      22.29206808        3      -0.00044322      -0.00512114      -0.02838691
Pt      -0.00000056       1.62074567      24.58417371        2       0.00433594       0.00169879      -0.02886715
Pt       2.80721444       1.62074547      24.58417389        2       0.04006208       0.02277235      -0.12052388
Pt       5.61442780       1.62074536      24.58417372        2      -0.03971345       0.02318284      -0.12042867
Pt       1.40360637       4.05186441      24.58417386        2      -0.23975883       0.13653782       0.35021663
Pt       4.21082088       4.05186402      24.58417378        2      -0.00036192      -0.04597585      -0.12027329
Pt       7.01803505       4.05186404      24.58417403        2       0.23807600       0.13949947       0.35025218
Pt       2.80721282       6.48298342      24.58417366        2      -0.00360205       0.00280577      -0.02862172
Pt       5.61442796       6.48298327      24.58417384        2      -0.00075518      -0.00450910      -0.02866411
Pt       8.42164224       6.48298339      24.58417376        2       0.00170944      -0.27602521       0.35026661
Pt       0.00000597       0.00000412      26.92038363        1      -0.00001482      -0.00001220      -0.01126447
Pt       2.79356956       0.02691287      26.90176378        1       0.00247065      -0.00370517      -0.00881558
Pt       5.62755424       0.02764388      26.90093312        1       0.00014533      -0.00503097      -0.01102884
Pt       1.42098447       2.40593911      26.90089921        1      -0.00444282       0.00238304      -0.01108180
Pt       4.21081412       2.43111542      26.92583479        1       0.00001741       0.00001469       0.00055617
Pt       7.00153980       2.40583672      26.90176334        1       0.00198493       0.00399442      -0.00876396
Pt       2.83734988       4.86061148      26.90176262        1      -0.00444094      -0.00028711      -0.00878256
Pt       5.58392853       4.85977214      26.90091264        1       0.00428429       0.00266024      -0.01105020
Pt       8.42164169       4.86223703      27.07492401        1      -0.00000017       0.00000201      -0.00020649
O        8.42164143       4.86223577      30.08953842        0       0.00000008       0.00000060       0.00440626
C        8.42164088       4.86223673      28.92711364        0      -0.00000052      -0.00000065      -0.00900362
