38
Lattice="8.421641763931781 0.0 0.0 4.2108208819658905 7.293355709136913 0.0 0.0 0.0 46.87624170604845" Properties=species:S:1:pos:R:3:tags:I:1:forces:R:3 charge=0 spin=0 energy=-202.8194007837843 free_energy=-202.8194007837843 stress="0.009595617651939392 -8.587861088926729e-08 -6.2244822629509144e-09 -8.587861088926729e-08 0.009595631621778011 -4.93612795082754e-08 -6.2244822629509144e-09 -4.93612795082754e-08 -0.0003314766800031066" pbc="T T T"
Pt      -0.00000000       0.00000021      19.95723433        4       0.00000150      -0.00000226       0.02237977
Pt       2.80721396      -0.00000008      19.95723446        4       0.00647301       0.00543794       0.01939753
Pt       5.61442779      -0.00000016      19.95723449        4      -0.00701202       0.00637153       0.01996568
Pt       1.40360720       2.43111835      19.95723435        4       0.00901355       0.00290023       0.02000758
Pt       4.21082080       2.43111834      19.95723443        4       0.00000280       0.00000218      -0.06854527
Pt       7.01803483       2.43111844      19.95723431        4      -0.00795248       0.00290175       0.01945088
Pt       2.80721405       4.86223724      19.95723403        4       0.00147718      -0.00834018       0.01938958
Pt       5.61442805       4.86223734      19.95723421        4      -0.00200481      -0.00926831       0.02002609
Pt       8.42164144       4.86223725      19.95723437        4       0.00000155      -0.00000397       0.01783462
Pt       1.40360728       0.81037258      22.29206792        3      -0.00120502       0.00606772      -0.06331073
Pt       4.21082126       0.81037248      22.29206794        3      -0.00146243       0.06240383      -0.11424813
Pt       7.01803474       0.81037256      22.29206786        3      -0.00463737      -0.00411301      -0.06332295
Pt       2.80721448       3.24149124      22.29206779        3       0.05478813      -0.02997408      -0.11425091
Pt       5.61442762       3.24149125      22.29206790        3      -0.05333083      -0.03241821      -0.11423441
Pt       8.42164155       3.24149130      22.29206809        3      -0.00413762       0.00279015      -0.02747805
Pt       4.21082091       5.67260997      22.29206801        3       0.00584575      -0.00194567      -0.06355337
Pt       7.01803488       5.67261037      22.29206781        3       0.00448214       0.00225786      -0.02769629
Pt       9.82524819       5.67261065      22.29206808        3      -0.00034339      -0.00506782      -0.02772780
Pt      -0.00000056       1.62074567      24.58417371        2       0.00352123       0.00193861      -0.03879229
Pt       2.80721444       1.62074547      24.58417389        2       0.04375615       0.02445550      -0.12864396
Pt       5.61442780       1.62074536      24.58417372        2      -0.04300297       0.02553319      -0.12852149
Pt       1.40360637       4.05186441      24.58417386        2      -0.24334373       0.13911185       0.34519401
Pt       4.21082088       4.05186402      24.58417378        2      -0.00074932      -0.04999782      -0.12837645
Pt       7.01803505       4.05186404      24.58417403        2       0.24208926       0.14131381       0.34524471
Pt       2.80721282       6.48298342      24.58417366        2      -0.00341711       0.00199245      -0.03853854
Pt       5.61442796       6.48298327      24.58417384        2      -0.00015322      -0.00393887      -0.03859513
Pt       8.42164224       6.48298339      24.58417376        2       0.00129360      -0.28041065       0.34524480
Pt       0.00000183       0.00000046      26.91822559        1      -0.00000161      -0.00000056      -0.00346837
Pt       2.79399757       0.02739098      26.89925461        1       0.00300261      -0.00787876       0.00156870
Pt       5.62768703       0.02769430      26.89773573        1      -0.00224050      -0.00790393       0.00184234
Pt       1.42095736       2.40579826      26.89769056        1      -0.00572267       0.00589211       0.00183579
Pt       4.21081952       2.43111893      26.92724900        1       0.00000178      -0.00000106      -0.00284719
Pt       7.00091534       2.40596792      26.89926896        1       0.00532279       0.00653923       0.00156584
Pt       2.83754942       4.86000005      26.89926234        1      -0.00832243       0.00134204       0.00156940
Pt       5.58381967       4.85986637      26.89771237        1       0.00796561       0.00201015       0.00183664
Pt       8.42164171       4.86223705      27.07653908        1       0.00000159       0.00000256      -0.00624574
O        8.42164130       4.86223674      30.09112725        0      -0.00000016      -0.00000058      -0.00737521
C        8.42164151       4.86223705      28.92857361        0      -0.00000025       0.00000110       0.00141832
