38
Lattice="8.421641763931781 0.0 0.0 4.2108208819658905 7.293355709136913 0.0 0.0 0.0 46.87624170604845" Properties=species:S:1:pos:R:3:tags:I:1:forces:R:3 charge=0 spin=0 energy=-202.81933593393077 free_energy=-202.81933593393077 stress="0.009625994600355625 -9.029299263829671e-08 3.1632436670037123e-09 -9.029299263829671e-08 0.009626002050936222 -8.120898797869813e-08 3.1632436670037123e-09 -8.120898797869813e-08 -0.0002853561891242862" pbc="T T T"
Pt      -0.00000000       0.00000021      19.95723433        4       0.00000213      -0.00000213       0.02241132
Pt       2.80721396      -0.00000008      19.95723446        4       0.00640345       0.00542552       0.01950103
Pt       5.61442779      -0.00000016      19.95723449        4      -0.00697213       0.00635424       0.02007399
Pt       1.40360720       2.43111835      19.95723435        4       0.00897896       0.00287398       0.02011610
Pt       4.21082080       2.43111834      19.95723443        4       0.00000268       0.00000226      -0.06861679
Pt       7.01803483       2.43111844      19.95723431        4      -0.00790672       0.00284791       0.01955425
Pt       2.80721405       4.86223724      19.95723403        4       0.00150114      -0.00827380       0.01949354
Pt       5.61442805       4.86223734      19.95723421        4      -0.00200964      -0.00922448       0.02013400
Pt       8.42164144       4.86223725      19.95723437        4       0.00000138      -0.00000459       0.01772894
Pt       1.40360728       0.81037258      22.29206792        3      -0.00114142       0.00609398      -0.06308323
Pt       4.21082126       0.81037248      22.29206794        3      -0.00144279       0.06232131      -0.11478217
Pt       7.01803474       0.81037256      22.29206786        3      -0.00469255      -0.00407258      -0.06309975
Pt       2.80721448       3.24149124      22.29206779        3       0.05470772      -0.02994652      -0.11478411
Pt       5.61442762       3.24149125      22.29206790        3      -0.05326762      -0.03236195      -0.11476973
Pt       8.42164155       3.24149130      22.29206809        3      -0.00413315       0.00290179      -0.02813271
Pt       4.21082091       5.67260997      22.29206801        3       0.00583822      -0.00201585      -0.06332815
Pt       7.01803488       5.67261037      22.29206781        3       0.00457811       0.00219631      -0.02835137
Pt       9.82524819       5.67261065      22.29206808        3      -0.00044328      -0.00512112      -0.02838676
Pt      -0.00000056       1.62074567      24.58417371        2       0.00433598       0.00169828      -0.02886686
Pt       2.80721444       1.62074547      24.58417389        2       0.04006242       0.02277177      -0.12052331
Pt       5.61442780       1.62074536      24.58417372        2      -0.03971313       0.02318131      -0.12042566
Pt       1.40360637       4.05186441      24.58417386        2      -0.23975864       0.13653813       0.35021627
Pt       4.21082088       4.05186402      24.58417378        2      -0.00036192      -0.04597641      -0.12027298
Pt       7.01803505       4.05186404      24.58417403        2       0.23807566       0.13949914       0.35025227
Pt       2.80721282       6.48298342      24.58417366        2      -0.00360336       0.00280688      -0.02861911
Pt       5.61442796       6.48298327      24.58417384        2      -0.00075537      -0.00450864      -0.02866391
Pt       8.42164224       6.48298339      24.58417376        2       0.00171059      -0.27602416       0.35026860
Pt       0.00000597       0.00000409      26.92038339        1      -0.00001627      -0.00001199      -0.01126456
Pt       2.79356955       0.02691277      26.90176379        1       0.00247075      -0.00370379      -0.00881596
Pt       5.62755412       0.02764373      26.90093357        1       0.00014819      -0.00502809      -0.01103611
Pt       1.42098444       2.40593923      26.90089943        1      -0.00444107       0.00238121      -0.01108203
Pt       4.21081416       2.43111540      26.92583490        1       0.00001845       0.00001354       0.00055581
Pt       7.00154001       2.40583677      26.90176353        1       0.00198061       0.00399152      -0.00876395
Pt       2.83734985       4.86061152      26.90176269        1      -0.00444088      -0.00028609      -0.00878255
Pt       5.58392860       4.85977223      26.90091278        1       0.00428390       0.00266017      -0.01105011
Pt       8.42164173       4.86223704      27.07492494        1      -0.00000023       0.00000233      -0.00020615
O        8.42164139       4.86223605      30.08953919        0       0.00000007      -0.00000030       0.00440915
C        8.42164090       4.86223671      28.92711403        0      -0.00000052       0.00000078      -0.00900685
