38
Lattice="8.421641763931781 0.0 0.0 4.2108208819658905 7.293355709136913 0.0 0.0 0.0 46.87624170604845" Properties=species:S:1:pos:R:3:tags:I:1:forces:R:3 charge=0 spin=0 energy=-202.81939983010997 free_energy=-202.81939983010997 stress="0.009595608338713646 -8.240552062943607e-08 -6.745971337096535e-09 -8.240552062943607e-08 0.009595632553100586 -4.8596493940067376e-08 -6.745971337096535e-09 -4.8596493940067376e-08 -0.00033145485213026404" pbc="T T T"
Pt      -0.00000000       0.00000021      19.95723433        4       0.00000142      -0.00000229       0.02237992
Pt       2.80721396      -0.00000008      19.95723446        4       0.00647309       0.00543801       0.01939745
Pt       5.61442779      -0.00000016      19.95723449        4      -0.00701194       0.00637143       0.01996570
Pt       1.40360720       2.43111835      19.95723435        4       0.00901368       0.00290032       0.02000743
Pt       4.21082080       2.43111834      19.95723443        4       0.00000276       0.00000222      -0.06854527
Pt       7.01803483       2.43111844      19.95723431        4      -0.00795227       0.00290202       0.01945069
Pt       2.80721405       4.86223724      19.95723403        4       0.00147728      -0.00834016       0.01938994
Pt       5.61442805       4.86223734      19.95723421        4      -0.00200481      -0.00926840       0.02002605
Pt       8.42164144       4.86223725      19.95723437        4       0.00000125      -0.00000403       0.01783460
Pt       1.40360728       0.81037258      22.29206792        3      -0.00120508       0.00606757      -0.06331041
Pt       4.21082126       0.81037248      22.29206794        3      -0.00146263       0.06240371      -0.11424775
Pt       7.01803474       0.81037256      22.29206786        3      -0.00463738      -0.00411316      -0.06332276
Pt       2.80721448       3.24149124      22.29206779        3       0.05478772      -0.02997346      -0.11424951
Pt       5.61442762       3.24149125      22.29206790        3      -0.05333151      -0.03241828      -0.11423530
Pt       8.42164155       3.24149130      22.29206809        3      -0.00413762       0.00279004      -0.02747793
Pt       4.21082091       5.67260997      22.29206801        3       0.00584564      -0.00194611      -0.06355292
Pt       7.01803488       5.67261037      22.29206781        3       0.00448197       0.00225785      -0.02769614
Pt       9.82524819       5.67261065      22.29206808        3      -0.00034340      -0.00506774      -0.02772793
Pt      -0.00000056       1.62074567      24.58417371        2       0.00352076       0.00194010      -0.03879572
Pt       2.80721444       1.62074547      24.58417389        2       0.04375580       0.02445474      -0.12864816
Pt       5.61442780       1.62074536      24.58417372        2      -0.04300201       0.02553304      -0.12852481
Pt       1.40360637       4.05186441      24.58417386        2      -0.24334487       0.13911204       0.34519541
Pt       4.21082088       4.05186402      24.58417378        2      -0.00074962      -0.04999700      -0.12838016
Pt       7.01803505       4.05186404      24.58417403        2       0.24208975       0.14131448       0.34524605
Pt       2.80721282       6.48298342      24.58417366        2      -0.00341812       0.00199181      -0.03854151
Pt       5.61442796       6.48298327      24.58417384        2      -0.00015147      -0.00393958      -0.03859834
Pt       8.42164224       6.48298339      24.58417376        2       0.00129365      -0.28041124       0.34524551
Pt       0.00000180       0.00000045      26.91822438        1      -0.00000161      -0.00000067      -0.00346089
Pt       2.79399752       0.02739093      26.89925435        1       0.00300330      -0.00788092       0.00156965
Pt       5.62768712       0.02769429      26.89773596        1      -0.00224132      -0.00790428       0.00184312
Pt       1.42095731       2.40579805      26.89769057        1      -0.00572345       0.00589431       0.00183734
Pt       4.21081952       2.43111895      26.92724819        1       0.00000212      -0.00000106      -0.00283945
Pt       7.00091534       2.40596789      26.89926851        1       0.00532390       0.00654077       0.00156617
Pt       2.83754944       4.86000020      26.89926191        1      -0.00832317       0.00134183       0.00157025
Pt       5.58381954       4.85986637      26.89771264        1       0.00797135       0.00200976       0.00183768
Pt       8.42164189       4.86223707      27.07654014        1      -0.00000322       0.00000213      -0.00620728
O        8.42164131       4.86223674      30.09112941        0      -0.00000041      -0.00000084      -0.00738454
C        8.42164156       4.86223702      28.92857631        0       0.00000041       0.00000104       0.00138371
