38
Lattice="8.421641763931781 0.0 0.0 4.2108208819658905 7.293355709136913 0.0 0.0 0.0 46.87624170604845" Properties=species:S:1:pos:R:3:tags:I:1:forces:R:3 charge=0 spin=0 energy=-202.8192729914259 free_energy=-202.8192729914259 stress="0.009581461548805237 -7.646438149322421e-08 1.1236429031669104e-07 -7.646438149322421e-08 0.009581535123288631 -8.019625852284662e-08 1.1236429031669104e-07 -8.019625852284662e-08 -0.0003884549078065902" pbc="T T T"
Pt      -0.00000000       0.00000021      19.95723433        4       0.00000564      -0.00000496       0.02221442
Pt       2.80721396      -0.00000008      19.95723446        4       0.00642632       0.00545275       0.01953864
Pt       5.61442779      -0.00000016      19.95723449        4      -0.00698968       0.00646377       0.02006267
Pt       1.40360720       2.43111835      19.95723435        4       0.00908487       0.00283699       0.02010062
Pt       4.21082080       2.43111834      19.95723443        4      -0.00000420       0.00000729      -0.06919040
Pt       7.01803483       2.43111844      19.95723431        4      -0.00794421       0.00285132       0.01959562
Pt       2.80721405       4.86223724      19.95723403        4       0.00151911      -0.00830599       0.01952800
Pt       5.61442805       4.86223734      19.95723421        4      -0.00209605      -0.00929778       0.02012246
Pt       8.42164144       4.86223725      19.95723437        4       0.00000330      -0.00000284       0.01756280
Pt       1.40360728       0.81037258      22.29206792        3      -0.00113402       0.00597834      -0.06317805
Pt       4.21082126       0.81037248      22.29206794        3      -0.00138643       0.06274558      -0.11443876
Pt       7.01803474       0.81037256      22.29206786        3      -0.00457770      -0.00400780      -0.06318455
Pt       2.80721448       3.24149124      22.29206779        3       0.05504891      -0.03020613      -0.11446866
Pt       5.61442762       3.24149125      22.29206790        3      -0.05364828      -0.03253716      -0.11442724
Pt       8.42164155       3.24149130      22.29206809        3      -0.00399114       0.00293534      -0.02820926
Pt       4.21082091       5.67260997      22.29206801        3       0.00574299      -0.00195697      -0.06339167
Pt       7.01803488       5.67261037      22.29206781        3       0.00455526       0.00205350      -0.02838445
Pt       9.82524819       5.67261065      22.29206808        3      -0.00053722      -0.00502563      -0.02841802
Pt      -0.00000056       1.62074567      24.58417371        2       0.00348654       0.00462405      -0.04005850
Pt       2.80721444       1.62074547      24.58417389        2       0.04155299       0.02370391      -0.12957962
Pt       5.61442780       1.62074536      24.58417372        2      -0.04130371       0.02401752      -0.12946285
Pt       1.40360637       4.05186441      24.58417386        2      -0.23700641       0.13478720       0.34071401
Pt       4.21082088       4.05186402      24.58417378        2      -0.00030671      -0.04763174      -0.12913880
Pt       7.01803505       4.05186404      24.58417403        2       0.23520535       0.13821615       0.34098274
Pt       2.80721282       6.48298342      24.58417366        2      -0.00579221       0.00056653      -0.03972650
Pt       5.61442796       6.48298327      24.58417384        2       0.00212251      -0.00535153      -0.03978967
Pt       8.42164224       6.48298339      24.58417376        2       0.00191667      -0.27291170       0.34086153
Pt      -0.00004453      -0.00000088      26.91542411        1       0.00005179       0.00003181       0.00905263
Pt       2.79366983       0.02776366      26.90049562        1       0.00542509      -0.00826354      -0.00339679
Pt       5.62902832       0.02802616      26.89945782        1      -0.00804215      -0.00800746      -0.00471888
Pt       1.42050943       2.40444361      26.89939505        1      -0.00287970       0.01102996      -0.00467944
Pt       4.21076985       2.43114500      26.92445173        1       0.00006992      -0.00005894       0.00754387
Pt       7.00068044       2.40554939      26.90050700        1       0.00456626       0.00880264      -0.00339435
Pt       2.83803708       4.86007342      26.90058561        1      -0.01009090      -0.00052488      -0.00370523
Pt       5.58283734       4.86091288      26.89951954        1       0.01086900      -0.00299090      -0.00497755
Pt       8.42158133       4.86225376      27.06841287        1       0.00029420      -0.00007313      -0.01480327
O        8.42203304       4.86213522      30.08159039        0       0.00011927      -0.00003009       0.01022135
C        8.42192064       4.86216727      28.91915911        0      -0.00033515       0.00008430       0.02662088
