38
Lattice="8.421641763931781 0.0 0.0 4.2108208819658905 7.293355709136913 0.0 0.0 0.0 46.87624170604845" Properties=species:S:1:pos:R:3:tags:I:1:forces:R:3 charge=0 spin=0 energy=-202.81927489877452 free_energy=-202.81927489877452 stress="0.009581438265740871 -7.573620308676254e-08 1.1166017088726221e-07 -7.573620308676254e-08 0.009581505320966244 -6.727636758796507e-08 1.1166017088726221e-07 -6.727636758796507e-08 -0.0003884983598254621" pbc="T T T"
Pt      -0.00000000       0.00000021      19.95723433        4       0.00000562      -0.00000466       0.02221442
Pt       2.80721396      -0.00000008      19.95723446        4       0.00642612       0.00545266       0.01953805
Pt       5.61442779      -0.00000016      19.95723449        4      -0.00698968       0.00646356       0.02006218
Pt       1.40360720       2.43111835      19.95723435        4       0.00908456       0.00283715       0.02010050
Pt       4.21082080       2.43111834      19.95723443        4      -0.00000455       0.00000647      -0.06919054
Pt       7.01803483       2.43111844      19.95723431        4      -0.00794384       0.00285171       0.01959543
Pt       2.80721405       4.86223724      19.95723403        4       0.00151942      -0.00830598       0.01952830
Pt       5.61442805       4.86223734      19.95723421        4      -0.00209623      -0.00929759       0.02012249
Pt       8.42164144       4.86223725      19.95723437        4       0.00000321      -0.00000266       0.01756278
Pt       1.40360728       0.81037258      22.29206792        3      -0.00113397       0.00597931      -0.06317751
Pt       4.21082126       0.81037248      22.29206794        3      -0.00138612       0.06274649      -0.11444087
Pt       7.01803474       0.81037256      22.29206786        3      -0.00457774      -0.00400732      -0.06318403
Pt       2.80721448       3.24149124      22.29206779        3       0.05504952      -0.03020472      -0.11446649
Pt       5.61442762       3.24149125      22.29206790        3      -0.05364868      -0.03253638      -0.11442687
Pt       8.42164155       3.24149130      22.29206809        3      -0.00399105       0.00293629      -0.02820873
Pt       4.21082091       5.67260997      22.29206801        3       0.00574296      -0.00195576      -0.06339158
Pt       7.01803488       5.67261037      22.29206781        3       0.00455553       0.00205462      -0.02838378
Pt       9.82524819       5.67261065      22.29206808        3      -0.00053722      -0.00502489      -0.02841769
Pt      -0.00000056       1.62074567      24.58417371        2       0.00348939       0.00461427      -0.04006544
Pt       2.80721444       1.62074547      24.58417389        2       0.04155364       0.02370516      -0.12958276
Pt       5.61442780       1.62074536      24.58417372        2      -0.04130617       0.02401789      -0.12946802
Pt       1.40360637       4.05186441      24.58417386        2      -0.23701653       0.13478763       0.34071442
Pt       4.21082088       4.05186402      24.58417378        2      -0.00030688      -0.04763939      -0.12914492
Pt       7.01803505       4.05186404      24.58417403        2       0.23521619       0.13821797       0.34098166
Pt       2.80721282       6.48298342      24.58417366        2      -0.00578968       0.00056546      -0.03973415
Pt       5.61442796       6.48298327      24.58417384        2       0.00211883      -0.00535293      -0.03979870
Pt       8.42164224       6.48298339      24.58417376        2       0.00191585      -0.27290753       0.34083986
Pt      -0.00004454      -0.00000615      26.91542585        1       0.00005216       0.00003906       0.00904525
Pt       2.79366773       0.02776086      26.90049259        1       0.00543260      -0.00826282      -0.00338419
Pt       5.62902938       0.02802367      26.89945373        1      -0.00804508      -0.00800923      -0.00470688
Pt       1.42050722       2.40444283      26.89939222        1      -0.00286859       0.01101659      -0.00466992
Pt       4.21077007       2.43113982      26.92445325        1       0.00006780      -0.00005106       0.00753556
Pt       7.00068378       2.40554766      26.90050397        1       0.00455221       0.00879241      -0.00337800
Pt       2.83803587       4.86006938      26.90058219        1      -0.01008043      -0.00052262      -0.00369024
Pt       5.58283891       4.86090780      26.89951587        1       0.01085707      -0.00298796      -0.00496417
Pt       8.42158129       4.86224754      27.06841466        1       0.00029578      -0.00004245      -0.01480530
O        8.42203328       4.86217737      30.08159177        0       0.00011976      -0.00001672       0.01021727
C        8.42192061       4.86219748      28.91916121        0      -0.00033559       0.00004783       0.02662249
