38
Lattice="8.421641763931781 0.0 0.0 4.2108208819658905 7.293355709136913 0.0 0.0 0.0 46.87624170604845" Properties=species:S:1:pos:R:3:tags:I:1:forces:R:3 charge=0 spin=0 energy=-202.8194007837843 free_energy=-202.8194007837843 stress="0.009595602750778198 -8.131279827239268e-08 -5.731506824702137e-09 -8.131279827239268e-08 0.009595622308552265 -4.700974542970471e-08 -5.731506824702137e-09 -4.700974542970471e-08 -0.00033149876981042325" pbc="T T T"
Pt      -0.00000000       0.00000021      19.95723433        4       0.00000135      -0.00000244       0.02237975
Pt       2.80721396      -0.00000008      19.95723446        4       0.00647302       0.00543759       0.01939740
Pt       5.61442779      -0.00000016      19.95723449        4      -0.00701193       0.00637148       0.01996559
Pt       1.40360720       2.43111835      19.95723435        4       0.00901355       0.00290027       0.02000752
Pt       4.21082080       2.43111834      19.95723443        4       0.00000296       0.00000207      -0.06854572
Pt       7.01803483       2.43111844      19.95723431        4      -0.00795252       0.00290180       0.01945090
Pt       2.80721405       4.86223724      19.95723403        4       0.00147725      -0.00834023       0.01938979
Pt       5.61442805       4.86223734      19.95723421        4      -0.00200477      -0.00926816       0.02002622
Pt       8.42164144       4.86223725      19.95723437        4       0.00000143      -0.00000376       0.01783441
Pt       1.40360728       0.81037258      22.29206792        3      -0.00120509       0.00606764      -0.06330964
Pt       4.21082126       0.81037248      22.29206794        3      -0.00146229       0.06240432      -0.11424851
Pt       7.01803474       0.81037256      22.29206786        3      -0.00463742      -0.00411337      -0.06332276
Pt       2.80721448       3.24149124      22.29206779        3       0.05478808      -0.02997348      -0.11425026
Pt       5.61442762       3.24149125      22.29206790        3      -0.05333088      -0.03241799      -0.11423461
Pt       8.42164155       3.24149130      22.29206809        3      -0.00413776       0.00279032      -0.02747761
Pt       4.21082091       5.67260997      22.29206801        3       0.00584585      -0.00194610      -0.06355233
Pt       7.01803488       5.67261037      22.29206781        3       0.00448195       0.00225787      -0.02769593
Pt       9.82524819       5.67261065      22.29206808        3      -0.00034321      -0.00506775      -0.02772783
Pt      -0.00000056       1.62074567      24.58417371        2       0.00352231       0.00194345      -0.03879841
Pt       2.80721444       1.62074547      24.58417389        2       0.04375013       0.02445163      -0.12864880
Pt       5.61442780       1.62074536      24.58417372        2      -0.04299852       0.02553097      -0.12853131
Pt       1.40360637       4.05186441      24.58417386        2      -0.24334398       0.13910969       0.34519506
Pt       4.21082088       4.05186402      24.58417378        2      -0.00074994      -0.04999312      -0.12838653
Pt       7.01803505       4.05186404      24.58417403        2       0.24208906       0.14131448       0.34524325
Pt       2.80721282       6.48298342      24.58417366        2      -0.00342026       0.00199042      -0.03854603
Pt       5.61442796       6.48298327      24.58417384        2      -0.00014775      -0.00393910      -0.03860097
Pt       8.42164224       6.48298339      24.58417376        2       0.00129242      -0.28040975       0.34524509
Pt       0.00000181       0.00000046      26.91821998        1      -0.00000015       0.00000012      -0.00344613
Pt       2.79399785       0.02739071      26.89925490        1       0.00300171      -0.00787871       0.00156189
Pt       5.62768712       0.02769397      26.89773650        1      -0.00224223      -0.00790421       0.00184374
Pt       1.42095708       2.40579817      26.89769113        1      -0.00572185       0.00589178       0.00182981
Pt       4.21081954       2.43111898      26.92724277        1       0.00000124      -0.00000113      -0.00281863
Pt       7.00091544       2.40596830      26.89926904        1       0.00532492       0.00654111       0.00156675
Pt       2.83754910       4.85999991      26.89926235        1      -0.00832370       0.00134169       0.00157046
Pt       5.58381969       4.85986652      26.89771320        1       0.00796963       0.00200899       0.00183791
Pt       8.42164183       4.86223715      27.07653778        1      -0.00000277       0.00000159      -0.00612742
O        8.42164130       4.86223675      30.09112921        0      -0.00000032      -0.00000100      -0.00720660
C        8.42164158       4.86223699      28.92857799        0       0.00000057       0.00000097       0.00113036
