38
Lattice="8.421641763931781 0.0 0.0 4.2108208819658905 7.293355709136913 0.0 0.0 0.0 46.87624170604845" Properties=species:S:1:pos:R:3:tags:I:1:forces:R:3 charge=0 spin=0 energy=-202.81927489877452 free_energy=-202.81927489877452 stress="0.009581438265740871 -4.683712617747915e-08 2.934426674983115e-07 -4.683712617747915e-08 0.009581528604030609 3.1919131782132126e-09 2.934426674983115e-07 3.1919131782132126e-09 -0.00038846887764520943" pbc="T T T"
Pt      -0.00000000       0.00000021      19.95723433        4       0.00001082      -0.00000250       0.02221429
Pt       2.80721396      -0.00000008      19.95723446        4       0.00642789       0.00545062       0.01953392
Pt       5.61442779      -0.00000016      19.95723449        4      -0.00698820       0.00646450       0.02006315
Pt       1.40360720       2.43111835      19.95723435        4       0.00908438       0.00283763       0.02009634
Pt       4.21082080       2.43111834      19.95723443        4      -0.00001601       0.00000529      -0.06919010
Pt       7.01803483       2.43111844      19.95723431        4      -0.00794441       0.00285311       0.01960124
Pt       2.80721405       4.86223724      19.95723403        4       0.00152266      -0.00830411       0.01952666
Pt       5.61442805       4.86223734      19.95723421        4      -0.00209472      -0.00929827       0.02012598
Pt       8.42164144       4.86223725      19.95723437        4       0.00000601       0.00000017       0.01756276
Pt       1.40360728       0.81037258      22.29206792        3      -0.00111888       0.00598466      -0.06318019
Pt       4.21082126       0.81037248      22.29206794        3      -0.00137244       0.06274796      -0.11445022
Pt       7.01803474       0.81037256      22.29206786        3      -0.00456254      -0.00400408      -0.06318379
Pt       2.80721448       3.24149124      22.29206779        3       0.05506022      -0.03019672      -0.11448361
Pt       5.61442762       3.24149125      22.29206790        3      -0.05364229      -0.03253369      -0.11440230
Pt       8.42164155       3.24149130      22.29206809        3      -0.00398092       0.00294231      -0.02820772
Pt       4.21082091       5.67260997      22.29206801        3       0.00575634      -0.00195169      -0.06339087
Pt       7.01803488       5.67261037      22.29206781        3       0.00456713       0.00205619      -0.02837631
Pt       9.82524819       5.67261065      22.29206808        3      -0.00052195      -0.00501885      -0.02842449
Pt      -0.00000056       1.62074567      24.58417371        2       0.00344905       0.00458953      -0.04006578
Pt       2.80721444       1.62074547      24.58417389        2       0.04150433       0.02367857      -0.12955278
Pt       5.61442780       1.62074536      24.58417372        2      -0.04134066       0.02403274      -0.12947656
Pt       1.40360637       4.05186441      24.58417386        2      -0.23695143       0.13470213       0.34057459
Pt       4.21082088       4.05186402      24.58417378        2      -0.00031644      -0.04765262      -0.12914458
Pt       7.01803505       4.05186404      24.58417403        2       0.23532145       0.13830034       0.34117067
Pt       2.80721282       6.48298342      24.58417366        2      -0.00586664       0.00052839      -0.03973233
Pt       5.61442796       6.48298327      24.58417384        2       0.00205533      -0.00535393      -0.03979688
Pt       8.42164224       6.48298339      24.58417376        2       0.00185336      -0.27287304       0.34079814
Pt      -0.00011810      -0.00002943      26.91542513        1       0.00014750       0.00006520       0.00905025
Pt       2.79360092       0.02772713      26.90049906        1       0.00549967      -0.00819380      -0.00340815
Pt       5.62897874       0.02803921      26.89944934        1      -0.00804715      -0.00812558      -0.00471555
Pt       1.42044615       2.40440626      26.89939510        1      -0.00282121       0.01109603      -0.00468114
Pt       4.21069866       2.43111710      26.92445279        1       0.00016223      -0.00002471       0.00753365
Pt       7.00064143       2.40556795      26.90050412        1       0.00451293       0.00863739      -0.00335820
Pt       2.83802433       4.86004389      26.90057843        1      -0.01023078      -0.00048922      -0.00371019
Pt       5.58283076       4.86088810      26.89952067        1       0.01068450      -0.00296820      -0.00495247
Pt       8.42149323       4.86221997      27.06841703        1       0.00073832       0.00009050      -0.01480416
O        8.42262813       4.86235392      30.08159494        0       0.00030746       0.00004233       0.01020676
C        8.42234803       4.86232654      28.91916236        0      -0.00085453      -0.00011462       0.02662995
