38
Lattice="8.421641763931781 0.0 0.0 4.2108208819658905 7.293355709136913 0.0 0.0 0.0 46.87624170604845" Properties=species:S:1:pos:R:3:tags:I:1:forces:R:3 charge=0 spin=0 energy=-202.81927775979747 free_energy=-202.81927775979747 stress="0.009581477381289005 -7.162331883137085e-08 9.743479267854127e-08 -7.162331883137085e-08 0.00958152674138546 -7.458710093999343e-09 9.743479267854127e-08 -7.458710093999343e-09 -0.0003885312471538782" pbc="T T T"
Pt      -0.00000000       0.00000021      19.95723433        4       0.00000507      -0.00000299       0.02221434
Pt       2.80721396      -0.00000008      19.95723446        4       0.00642533       0.00545310       0.01953684
Pt       5.61442779      -0.00000016      19.95723449        4      -0.00698944       0.00646371       0.02006091
Pt       1.40360720       2.43111835      19.95723435        4       0.00908449       0.00283772       0.02010086
Pt       4.21082080       2.43111834      19.95723443        4      -0.00000444       0.00000281      -0.06919035
Pt       7.01803483       2.43111844      19.95723431        4      -0.00794419       0.00285299       0.01959539
Pt       2.80721405       4.86223724      19.95723403        4       0.00151973      -0.00830592       0.01953018
Pt       5.61442805       4.86223734      19.95723421        4      -0.00209650      -0.00929763       0.02012380
Pt       8.42164144       4.86223725      19.95723437        4       0.00000248      -0.00000167       0.01756278
Pt       1.40360728       0.81037258      22.29206792        3      -0.00113426       0.00598388      -0.06317856
Pt       4.21082126       0.81037248      22.29206794        3      -0.00138790       0.06274912      -0.11444941
Pt       7.01803474       0.81037256      22.29206786        3      -0.00457864      -0.00400277      -0.06318482
Pt       2.80721448       3.24149124      22.29206779        3       0.05504985      -0.03020132      -0.11446176
Pt       5.61442762       3.24149125      22.29206790        3      -0.05364997      -0.03253108      -0.11442453
Pt       8.42164155       3.24149130      22.29206809        3      -0.00399096       0.00294149      -0.02820698
Pt       4.21082091       5.67260997      22.29206801        3       0.00574249      -0.00195077      -0.06339039
Pt       7.01803488       5.67261037      22.29206781        3       0.00455324       0.00205823      -0.02838484
Pt       9.82524819       5.67261065      22.29206808        3      -0.00053723      -0.00502167      -0.02842051
Pt      -0.00000056       1.62074567      24.58417371        2       0.00349054       0.00459081      -0.04006060
Pt       2.80721444       1.62074547      24.58417389        2       0.04154778       0.02369575      -0.12957533
Pt       5.61442780       1.62074536      24.58417372        2      -0.04129381       0.02400650      -0.12945426
Pt       1.40360637       4.05186441      24.58417386        2      -0.23704468       0.13478684       0.34075814
Pt       4.21082088       4.05186402      24.58417378        2      -0.00030464      -0.04765230      -0.12914567
Pt       7.01803505       4.05186404      24.58417403        2       0.23523469       0.13820949       0.34101692
Pt       2.80721282       6.48298342      24.58417366        2      -0.00579558       0.00054858      -0.03972527
Pt       5.61442796       6.48298327      24.58417384        2       0.00213380      -0.00537364      -0.03979020
Pt       8.42164224       6.48298339      24.58417376        2       0.00191738      -0.27285933       0.34079278
Pt      -0.00004010      -0.00003032      26.91542342        1       0.00004319       0.00007064       0.00905369
Pt       2.79366139       0.02775618      26.90049645        1       0.00547632      -0.00831534      -0.00340847
Pt       5.62904164       0.02801565      26.89945709        1      -0.00808594      -0.00804306      -0.00472980
Pt       1.42050201       2.40443479      26.89939754        1      -0.00284037       0.01098771      -0.00467210
Pt       4.21077427       2.43111658      26.92445156        1       0.00006538      -0.00002381       0.00754421
Pt       7.00069689       2.40553697      26.90050844        1       0.00451295       0.00877208      -0.00339195
Pt       2.83803622       4.86004536      26.90058405        1      -0.01007569      -0.00049219      -0.00369617
Pt       5.58283948       4.86088509      26.89951837        1       0.01087091      -0.00296254      -0.00498035
Pt       8.42158620       4.86221919      27.06841442        1       0.00027403       0.00010340      -0.01481463
O        8.42199977       4.86237071      30.08158983        0       0.00010853       0.00004502       0.01041252
C        8.42189595       4.86233662      28.91916072        0      -0.00030407      -0.00012194       0.02643402
