38
Lattice="8.421641763931781 0.0 0.0 4.2108208819658905 7.293355709136913 0.0 0.0 0.0 46.87624170604845" Properties=species:S:1:pos:R:3:tags:I:1:forces:R:3 charge=0 spin=0 energy=-202.81927585244884 free_energy=-202.81927585244884 stress="0.009581450372934341 -8.903779047386706e-08 7.964437997998175e-08 -8.903779047386706e-08 0.009581536054611206 -1.6862635732195486e-07 7.964437997998175e-08 -1.6862635732195486e-07 -0.0003885081969201565" pbc="T T T"
Pt      -0.00000000       0.00000021      19.95723433        4       0.00000462      -0.00000766       0.02221429
Pt       2.80721396      -0.00000008      19.95723446        4       0.00642649       0.00545264       0.01954130
Pt       5.61442779      -0.00000016      19.95723449        4      -0.00699034       0.00646308       0.02006364
Pt       1.40360720       2.43111835      19.95723435        4       0.00908475       0.00283613       0.02010151
Pt       4.21082080       2.43111834      19.95723443        4      -0.00000075       0.00001181      -0.06919001
Pt       7.01803483       2.43111844      19.95723431        4      -0.00794425       0.00284984       0.01959384
Pt       2.80721405       4.86223724      19.95723403        4       0.00151763      -0.00830633       0.01952656
Pt       5.61442805       4.86223734      19.95723421        4      -0.00209574      -0.00929745       0.02012022
Pt       8.42164144       4.86223725      19.95723437        4       0.00000307      -0.00000478       0.01756278
Pt       1.40360728       0.81037258      22.29206792        3      -0.00113787       0.00597127      -0.06317641
Pt       4.21082126       0.81037248      22.29206794        3      -0.00138903       0.06274251      -0.11442786
Pt       7.01803474       0.81037256      22.29206786        3      -0.00458035      -0.00401386      -0.06318536
Pt       2.80721448       3.24149124      22.29206779        3       0.05504533      -0.03021237      -0.11446917
Pt       5.61442762       3.24149125      22.29206790        3      -0.05364854      -0.03254292      -0.11443684
Pt       8.42164155       3.24149130      22.29206809        3      -0.00399285       0.00292789      -0.02821247
Pt       4.21082091       5.67260997      22.29206801        3       0.00574033      -0.00196404      -0.06339286
Pt       7.01803488       5.67261037      22.29206781        3       0.00455400       0.00204843      -0.02838339
Pt       9.82524819       5.67261065      22.29206808        3      -0.00054079      -0.00503099      -0.02841494
Pt      -0.00000056       1.62074567      24.58417371        2       0.00349610       0.00466139      -0.04006338
Pt       2.80721444       1.62074547      24.58417389        2       0.04157345       0.02371935      -0.12958834
Pt       5.61442780       1.62074536      24.58417372        2      -0.04130341       0.02402483      -0.12946293
Pt       1.40360637       4.05186441      24.58417386        2      -0.23699297       0.13481478       0.34071362
Pt       4.21082088       4.05186402      24.58417378        2      -0.00030399      -0.04760895      -0.12912638
Pt       7.01803505       4.05186404      24.58417403        2       0.23515180       0.13820209       0.34090003
Pt       2.80721282       6.48298342      24.58417366        2      -0.00576688       0.00059508      -0.03973027
Pt       5.61442796       6.48298327      24.58417384        2       0.00212767      -0.00533177      -0.03979744
Pt       8.42164224       6.48298339      24.58417376        2       0.00193020      -0.27297610       0.34094593
Pt      -0.00002800       0.00003319      26.91542458        1       0.00002554      -0.00001219       0.00905233
Pt       2.79369251       0.02777896      26.90049401        1       0.00537889      -0.00822586      -0.00337747
Pt       5.62902877       0.02803067      26.89945834        1      -0.00799814      -0.00793038      -0.00470306
Pt       1.42053335       2.40446368      26.89939024        1      -0.00292633       0.01104421      -0.00467567
Pt       4.21078580       2.43117815      26.92445285        1       0.00004915      -0.00010074       0.00753543
Pt       7.00068211       2.40555614      26.90050295        1       0.00460113       0.00886854      -0.00339723
Pt       2.83803941       4.86010771      26.90058628        1      -0.01005675      -0.00056898      -0.00370610
Pt       5.58283874       4.86094508      26.89951801        1       0.01090526      -0.00303144      -0.00497677
Pt       8.42160069       4.86229498      27.06841746        1       0.00019673      -0.00027722      -0.01477613
O        8.42189738       4.86186067      30.08159394        0       0.00007958      -0.00011949       0.01039946
C        8.42182412       4.86196919      28.91916518        0      -0.00022278       0.00032945       0.02639942
