38
Lattice="8.421641763931781 0.0 0.0 4.2108208819658905 7.293355709136913 0.0 0.0 0.0 46.87624170604845" Properties=species:S:1:pos:R:3:tags:I:1:forces:R:3 charge=0 spin=0 energy=-202.81940364480724 free_energy=-202.81940364480724 stress="0.009595606476068497 -8.315210919818128e-08 -6.036628974470659e-09 -8.315210919818128e-08 0.009595624171197414 -4.767411709849512e-08 -6.036628974470659e-09 -4.767411709849512e-08 -0.0003314727800898254" pbc="T T T"
Pt      -0.00000000       0.00000021      19.95723433        4       0.00000136      -0.00000230       0.02237965
Pt       2.80721396      -0.00000008      19.95723446        4       0.00647319       0.00543789       0.01939742
Pt       5.61442779      -0.00000016      19.95723449        4      -0.00701204       0.00637130       0.01996570
Pt       1.40360720       2.43111835      19.95723435        4       0.00901362       0.00290030       0.02000739
Pt       4.21082080       2.43111834      19.95723443        4       0.00000279       0.00000214      -0.06854574
Pt       7.01803483       2.43111844      19.95723431        4      -0.00795217       0.00290174       0.01945075
Pt       2.80721405       4.86223724      19.95723403        4       0.00147721      -0.00834020       0.01938983
Pt       5.61442805       4.86223734      19.95723421        4      -0.00200486      -0.00926833       0.02002601
Pt       8.42164144       4.86223725      19.95723437        4       0.00000145      -0.00000381       0.01783449
Pt       1.40360728       0.81037258      22.29206792        3      -0.00120523       0.00606754      -0.06330994
Pt       4.21082126       0.81037248      22.29206794        3      -0.00146228       0.06240456      -0.11424893
Pt       7.01803474       0.81037256      22.29206786        3      -0.00463743      -0.00411333      -0.06332269
Pt       2.80721448       3.24149124      22.29206779        3       0.05478775      -0.02997337      -0.11425028
Pt       5.61442762       3.24149125      22.29206790        3      -0.05333173      -0.03241828      -0.11423565
Pt       8.42164155       3.24149130      22.29206809        3      -0.00413755       0.00279029      -0.02747761
Pt       4.21082091       5.67260997      22.29206801        3       0.00584576      -0.00194604      -0.06355266
Pt       7.01803488       5.67261037      22.29206781        3       0.00448210       0.00225790      -0.02769590
Pt       9.82524819       5.67261065      22.29206808        3      -0.00034342      -0.00506785      -0.02772800
Pt      -0.00000056       1.62074567      24.58417371        2       0.00352287       0.00194197      -0.03879550
Pt       2.80721444       1.62074547      24.58417389        2       0.04375101       0.02445266      -0.12864660
Pt       5.61442780       1.62074536      24.58417372        2      -0.04299960       0.02553118      -0.12852857
Pt       1.40360637       4.05186441      24.58417386        2      -0.24334343       0.13910975       0.34519392
Pt       4.21082088       4.05186402      24.58417378        2      -0.00074954      -0.04999442      -0.12838368
Pt       7.01803505       4.05186404      24.58417403        2       0.24208906       0.14131421       0.34524274
Pt       2.80721282       6.48298342      24.58417366        2      -0.00341932       0.00199124      -0.03854343
Pt       5.61442796       6.48298327      24.58417384        2      -0.00014929      -0.00393839      -0.03859806
Pt       8.42164224       6.48298339      24.58417376        2       0.00129232      -0.28040969       0.34524474
Pt       0.00000179       0.00000047      26.91822199        1      -0.00000029       0.00000026      -0.00345368
Pt       2.79399775       0.02739079      26.89925485        1       0.00300072      -0.00787768       0.00156179
Pt       5.62768701       0.02769401      26.89773648        1      -0.00224118      -0.00790396       0.00184287
Pt       1.42095715       2.40579829      26.89769133        1      -0.00572096       0.00589023       0.00182909
Pt       4.21081959       2.43111900      26.92724453        1       0.00000052      -0.00000105      -0.00282639
Pt       7.00091541       2.40596828      26.89926925        1       0.00532372       0.00653927       0.00156628
Pt       2.83754917       4.85999997      26.89926226        1      -0.00832355       0.00134192       0.00156974
Pt       5.58381979       4.85986641      26.89771305        1       0.00796651       0.00200936       0.00183708
Pt       8.42164178       4.86223711      27.07653772        1       0.00000217       0.00000257      -0.00620066
O        8.42164132       4.86223675      30.09112774        0       0.00000013      -0.00000065      -0.00738420
C        8.42164149       4.86223684      28.92857394        0      -0.00000046       0.00000103       0.00138855
