36
Lattice="8.421641763931781 0.0 0.0 4.2108208819658905 7.293355709136913 0.0 0.0 0.0 46.87624170604845" Properties=species:S:1:pos:R:3:tags:I:1:forces:R:3 charge=0 spin=0 energy=-186.93033381965532 free_energy=-186.93033381965532 stress="0.00856211967766285 -2.2068800120678134e-09 -6.558891207930628e-10 -2.2068800120678134e-09 0.008562121540307999 -2.6439548328482942e-09 -6.558891207930628e-10 -2.6439548328482942e-09 -0.0033283380325883627" pbc="T T T"
Pt       0.00000000       0.00000000      20.00000000        4       0.00000209      -0.00000287      -0.22563666
Pt       2.80721392       0.00000000      20.00000000        4       0.00000029      -0.00000214      -0.22563581
Pt       5.61442784       0.00000000      20.00000000        4      -0.00000249      -0.00000132      -0.22563523
Pt       1.40360696       2.43111857      20.00000000        4       0.00000120       0.00000003      -0.22563797
Pt       4.21082088       2.43111857      20.00000000        4       0.00000196       0.00000009      -0.22563618
Pt       7.01803480       2.43111857      20.00000000        4      -0.00000259      -0.00000022      -0.22563818
Pt       2.80721392       4.86223714      20.00000000        4       0.00000074       0.00000096      -0.22563758
Pt       5.61442784       4.86223714      20.00000000        4      -0.00000227       0.00000160      -0.22563598
Pt       8.42164176       4.86223714      20.00000000        4       0.00000143       0.00000263      -0.22563736
Pt       1.40360696       0.81037286      22.29208057        3       0.00000147      -0.00000387       0.21236134
Pt       4.21082088       0.81037286      22.29208057        3       0.00000366      -0.00000315       0.21236089
Pt       7.01803480       0.81037286      22.29208057        3      -0.00000388      -0.00000297       0.21236154
Pt       2.80721392       3.24149143      22.29208057        3       0.00000088      -0.00000074       0.21235918
Pt       5.61442784       3.24149143      22.29208057        3      -0.00000336       0.00000017       0.21236056
Pt       8.42164176       3.24149143      22.29208057        3       0.00000271       0.00000093       0.21236099
Pt       4.21082088       5.67261000      22.29208057        3       0.00000484       0.00000159       0.21235868
Pt       7.01803480       5.67261000      22.29208057        3      -0.00000234       0.00000349       0.21235979
Pt       9.82524872       5.67261000      22.29208057        3      -0.00000258       0.00000394       0.21236125
Pt       0.00000000       1.62074571      24.58416114        2       0.00000324      -0.00000152      -0.21236046
Pt       2.80721392       1.62074571      24.58416114        2       0.00000091      -0.00000287      -0.21235999
Pt       5.61442784       1.62074571      24.58416114        2      -0.00000301      -0.00000310      -0.21236070
Pt       1.40360696       4.05186428      24.58416114        2      -0.00000296       0.00000158      -0.21236056
Pt       4.21082088       4.05186428      24.58416114        2       0.00000487      -0.00000005      -0.21235989
Pt       7.01803480       4.05186428      24.58416114        2      -0.00000248       0.00000014      -0.21236068
Pt       2.80721392       6.48298285      24.58416114        2      -0.00000712       0.00000224      -0.21236084
Pt       5.61442784       6.48298285      24.58416114        2      -0.00000173       0.00000225      -0.21236090
Pt       8.42164176       6.48298285      24.58416114        2       0.00000519       0.00000377      -0.21235976
Pt       0.00000000       0.00000000      26.87624171        1       0.00000263      -0.00000206       0.22563717
Pt       2.80721392       0.00000000      26.87624171        1       0.00000068      -0.00000132       0.22563593
Pt       5.61442784       0.00000000      26.87624171        1      -0.00000220      -0.00000205       0.22563437
Pt       1.40360696       2.43111857      26.87624171        1       0.00000125      -0.00000025       0.22563832
Pt       4.21082088       2.43111857      26.87624171        1       0.00000197      -0.00000040       0.22563632
Pt       7.01803480       2.43111857      26.87624171        1      -0.00000249       0.00000014       0.22563823
Pt       2.80721392       4.86223714      26.87624171        1       0.00000040       0.00000162       0.22563739
Pt       5.61442784       4.86223714      26.87624171        1      -0.00000223       0.00000108       0.22563589
Pt       8.42164176       4.86223714      26.87624171        1       0.00000160       0.00000279       0.22563688
