36
Lattice="8.421641763931781 0.0 0.0 4.2108208819658905 7.293355709136913 0.0 0.0 0.0 46.87624170604845" Properties=species:S:1:pos:R:3:tags:I:1:forces:R:3 charge=0 spin=0 energy=-187.00367709663286 free_energy=-187.00367709663286 stress="0.010496622882783413 4.662863872795242e-09 2.272422916504979e-09 4.662863872795242e-09 0.010496649891138077 -1.2043198660549592e-09 2.272422916504979e-09 -1.2043198660549592e-09 4.6178724005585536e-05" pbc="T T T"
Pt      -0.00000012      -0.00000004      19.95723457        4      -0.00000142       0.00000291       0.01626830
Pt       2.80721395      -0.00000016      19.95723462        4       0.00000046       0.00000262       0.01627095
Pt       5.61442787      -0.00000009      19.95723469        4      -0.00000043       0.00000229       0.01627148
Pt       1.40360721       2.43111844      19.95723450        4       0.00000073       0.00000121       0.01627303
Pt       4.21082082       2.43111841      19.95723461        4       0.00000203      -0.00000069       0.01627224
Pt       7.01803480       2.43111847      19.95723446        4      -0.00000159      -0.00000096       0.01627258
Pt       2.80721415       4.86223736      19.95723430        4      -0.00000315      -0.00000341       0.01627833
Pt       5.61442796       4.86223738      19.95723451        4       0.00000024      -0.00000452       0.01626832
Pt       8.42164141       4.86223712      19.95723445        4       0.00000313      -0.00000032       0.01627143
Pt       1.40360727       0.81037260      22.29206796        3      -0.00000097       0.00000255      -0.04297764
Pt       4.21082131       0.81037250      22.29206795        3      -0.00000127       0.00000540      -0.04298243
Pt       7.01803474       0.81037257      22.29206787        3       0.00000047       0.00000062      -0.04298047
Pt       2.80721448       3.24149122      22.29206776        3      -0.00000692       0.00000362      -0.04298068
Pt       5.61442763       3.24149122      22.29206790        3       0.00000257       0.00000045      -0.04297999
Pt       8.42164153       3.24149129      22.29206804        3       0.00000389       0.00000090      -0.04297996
Pt       4.21082092       5.67260997      22.29206741        3      -0.00000448       0.00000245      -0.04296223
Pt       7.01803486       5.67261038      22.29206784        3      -0.00000250      -0.00000372      -0.04297710
Pt       9.82524821       5.67261064      22.29206811        3       0.00000923      -0.00000992      -0.04298357
Pt      -0.00000055       1.62074564      24.58417373        2       0.00000359      -0.00000268       0.04298174
Pt       2.80721438       1.62074544      24.58417388        2      -0.00000636       0.00000460       0.04297929
Pt       5.61442780       1.62074536      24.58417376        2       0.00000198       0.00000523       0.04298116
Pt       1.40360636       4.05186448      24.58417388        2       0.00000852      -0.00000238       0.04298022
Pt       4.21082089       4.05186396      24.58417385        2      -0.00000229       0.00000734       0.04297824
Pt       7.01803505       4.05186407      24.58417401        2      -0.00000419       0.00000306       0.04297862
Pt       2.80721273       6.48298345      24.58417382        2       0.00001598      -0.00000938       0.04297938
Pt       5.61442806       6.48298330      24.58417394        2      -0.00000746      -0.00000336       0.04297745
Pt       8.42164223       6.48298339      24.58417374        2      -0.00000873      -0.00000540       0.04298230
Pt       0.00000046      -0.00000000      26.91900736        1      -0.00000124      -0.00000036      -0.01628017
Pt       2.80721392      -0.00000013      26.91900710        1      -0.00000046       0.00000213      -0.01627059
Pt       5.61442781      -0.00000003      26.91900691        1       0.00000043       0.00000173      -0.01626908
Pt       1.40360736       2.43111851      26.91900728        1       0.00000018       0.00000110      -0.01627286
Pt       4.21082086       2.43111855      26.91900709        1       0.00000178       0.00000078      -0.01627173
Pt       7.01803486       2.43111865      26.91900711        1      -0.00000107      -0.00000236      -0.01627108
Pt       2.80721396       4.86223724      26.91900740        1      -0.00000254      -0.00000067      -0.01628178
Pt       5.61442796       4.86223739      26.91900716        1      -0.00000203      -0.00000156      -0.01627211
Pt       8.42164129       4.86223710      26.91900718        1       0.00000363       0.00000082      -0.01627133
