38
Lattice="8.421641763931781 0.0 0.0 4.2108208819658905 7.293355709136913 0.0 0.0 0.0 46.87624170604845" Properties=species:S:1:pos:R:3:tags:I:1:initial_magmoms:R:1:forces:R:3 charge=0 spin=0 energy=-196.54989382321202 free_energy=-196.54989382321202 stress="0.009120197035372257 -0.0004091461014468223 -0.0002042737469309941 -0.0004091461014468223 0.009479431435465813 -7.70453698351048e-05 -0.0002042737469309941 -7.70453698351048e-05 -0.0002867131261155009" pbc="T T T"
Pt      -0.00000001       0.00000015      19.95723445        4       0.00000000       0.00427948      -0.01101424      -0.02058400
Pt       2.80721394      -0.00000009      19.95723448        4       0.00000000      -0.00446285      -0.00520100       0.01395083
Pt       5.61442781      -0.00000017      19.95723450        4       0.00000000       0.01478768       0.00885344       0.03264821
Pt       1.40360720       2.43111836      19.95723436        4       0.00000000      -0.00848266      -0.01014100       0.01761017
Pt       4.21082078       2.43111836      19.95723446        4       0.00000000       0.00096387      -0.00070998       0.01462394
Pt       7.01803484       2.43111844      19.95723431        4       0.00000000      -0.00359802       0.01224939      -0.02197394
Pt       2.80721414       4.86223727      19.95723413        4       0.00000000       0.00083897       0.00186709       0.01216634
Pt       5.61442797       4.86223736      19.95723433        4       0.00000000      -0.00177175      -0.00058088       0.00333142
Pt       8.42164142       4.86223724      19.95723439        4       0.00000000      -0.00811287      -0.00388630       0.01787849
Pt       1.40360727       0.81037261      22.29206790        3       0.00000000      -0.03131408      -0.02053780      -0.08721706
Pt       4.21082126       0.81037249      22.29206793        3       0.00000000      -0.02274812      -0.00562591      -0.04801429
Pt       7.01803475       0.81037258      22.29206787        3       0.00000000       0.01689700       0.01145487       0.05013914
Pt       2.80721449       3.24149123      22.29206778        3       0.00000000      -0.01788339      -0.00932903      -0.03266196
Pt       5.61442761       3.24149123      22.29206789        3       0.00000000       0.00212769      -0.00634418      -0.07260437
Pt       8.42164155       3.24149130      22.29206812        3       0.00000000      -0.02851504      -0.01966347      -0.09228502
Pt       4.21082090       5.67260997      22.29206743        3       0.00000000      -0.00585941       0.00559915      -0.07787955
Pt       7.01803489       5.67261038      22.29206778        3       0.00000000      -0.01120524      -0.01026235      -0.07378529
Pt       9.82524818       5.67261058      22.29206804        3       0.00000000      -0.00964574      -0.02206629      -0.04742106
Pt      -0.00000057       1.62074568      24.58417368        2       0.00000000      -0.08489310      -0.04403537      -0.24110608
Pt       2.80721445       1.62074549      24.58417387        2       0.00000000       0.11742166       0.02986682      -0.01190524
Pt       5.61442780       1.62074538      24.58417368        2       0.00000000      -0.23162945       0.16817036       0.47369012
Pt       1.40360635       4.05186441      24.58417386        2       0.00000000       0.07449205       0.10259028      -0.00917662
Pt       4.21082088       4.05186391      24.58417389        2       0.00000000       0.00425740       0.01405783      -0.02647394
Pt       7.01803505       4.05186405      24.58417404        2       0.00000000       0.10123894      -0.03863372      -0.13316283
Pt       2.80721273       6.48298348      24.58417381        2       0.00000000       0.00096729      -0.28537127       0.50702137
Pt       5.61442805       6.48298330      24.58417394        2       0.00000000       0.00213604       0.12805274      -0.14074573
Pt       8.42164222       6.48298341      24.58417373        2       0.00000000      -0.00740548       0.00085181      -0.01899629
Pt       0.04578356       0.04560988      26.93597851        1       0.00000000      -0.00480135       0.00430394       0.00546065
Pt       2.84806921       0.04514237      26.91532710        1       0.00000000       0.02172630      -0.03183310       0.00095454
Pt       5.64917647       0.03483981      26.90970891        1       0.00000000       0.03047275      -0.01169480      -0.00229770
Pt       1.37452087       2.42570120      26.84928941        1       0.00000000       0.00534494       0.00285252      -0.00362787
Pt       4.31135515       2.45519283      26.95015539        1       0.00000000       0.01625006       0.02078017       0.01196600
Pt       7.06651531       2.46900641      26.93690414        1       0.00000000       0.02794270      -0.01090794       0.00372932
Pt       2.87216154       4.95441946      26.95132770        1       0.00000000       0.01426584       0.01863755      -0.00139966
Pt       5.71845542       4.93388298      26.87184866        1       0.00000000       0.03237154       0.00906425       0.00236687
Pt       8.46891493       4.89541504      26.91417603        1       0.00000000      -0.00413506       0.01891660      -0.00311551
O        3.44054561       3.63654318      28.59612030        0       0.50000000      -0.00026641      -0.02084998      -0.03625713
H        4.21569181       4.07616235      29.01156074        0       0.50000000      -0.00205222       0.01051992       0.03515381
