38
Lattice="8.421641763931781 0.0 0.0 4.2108208819658905 7.293355709136913 0.0 0.0 0.0 46.87624170604845" Properties=species:S:1:pos:R:3:tags:I:1:initial_magmoms:R:1:forces:R:3 charge=0 spin=0 energy=-196.55269190365635 free_energy=-196.55269190365635 stress="0.009090034291148186 -0.0003655528125818819 -0.0002086734166368842 -0.0003655528125818819 0.00948015134781599 -0.00011777626787079498 -0.0002086734166368842 -0.00011777626787079498 -0.0002939491532742977" pbc="T T T"
Pt      -0.00000001       0.00000015      19.95723445        4       0.00000000       0.00420210      -0.01221926      -0.02250392
Pt       2.80721394      -0.00000009      19.95723448        4       0.00000000      -0.00800485      -0.00575706       0.01260493
Pt       5.61442781      -0.00000017      19.95723450        4       0.00000000       0.01297020       0.00852784       0.03382959
Pt       1.40360720       2.43111836      19.95723436        4       0.00000000      -0.01144768      -0.01132296       0.01729262
Pt       4.21082078       2.43111836      19.95723446        4       0.00000000      -0.00150902      -0.00129057       0.01535952
Pt       7.01803484       2.43111844      19.95723431        4       0.00000000      -0.00528365       0.01190427      -0.02256249
Pt       2.80721414       4.86223727      19.95723413        4       0.00000000      -0.00176641       0.00159565       0.01255346
Pt       5.61442797       4.86223736      19.95723433        4       0.00000000      -0.00470672      -0.00109960       0.00359537
Pt       8.42164142       4.86223724      19.95723439        4       0.00000000      -0.01140493      -0.00430416       0.01709932
Pt       1.40360727       0.81037261      22.29206790        3       0.00000000      -0.03989176      -0.02031294      -0.08892926
Pt       4.21082126       0.81037249      22.29206793        3       0.00000000      -0.03394847      -0.00587482      -0.04770769
Pt       7.01803475       0.81037258      22.29206787        3       0.00000000       0.01008275       0.00917128       0.05228867
Pt       2.80721449       3.24149123      22.29206778        3       0.00000000      -0.02669235      -0.00879595      -0.03643350
Pt       5.61442761       3.24149123      22.29206789        3       0.00000000      -0.00721039      -0.00805112      -0.07265789
Pt       8.42164155       3.24149130      22.29206812        3       0.00000000      -0.03795709      -0.01679816      -0.09444045
Pt       4.21082090       5.67260997      22.29206743        3       0.00000000      -0.01631486       0.00608611      -0.07792597
Pt       7.01803489       5.67261038      22.29206778        3       0.00000000      -0.02203012      -0.01005961      -0.07545840
Pt       9.82524818       5.67261058      22.29206804        3       0.00000000      -0.02156839      -0.02312673      -0.04694787
Pt      -0.00000057       1.62074568      24.58417368        2       0.00000000      -0.05545209      -0.05222903      -0.23722214
Pt       2.80721445       1.62074549      24.58417387        2       0.00000000       0.15420792       0.02004616      -0.03189382
Pt       5.61442780       1.62074538      24.58417368        2       0.00000000      -0.21588168       0.18915206       0.49500939
Pt       1.40360635       4.05186441      24.58417386        2       0.00000000       0.09995755       0.10195319      -0.03368260
Pt       4.21082088       4.05186391      24.58417389        2       0.00000000       0.03369052       0.01247755      -0.01970427
Pt       7.01803505       4.05186405      24.58417404        2       0.00000000       0.11963455      -0.03934658      -0.12680985
Pt       2.80721273       6.48298348      24.58417381        2       0.00000000       0.04682821      -0.29318914       0.50150019
Pt       5.61442805       6.48298330      24.58417394        2       0.00000000       0.02760109       0.11617747      -0.12004484
Pt       8.42164222       6.48298341      24.58417373        2       0.00000000       0.02616950       0.00245476      -0.02514812
Pt       0.08677826       0.04499948      26.94049490        1       0.00000000       0.01215934       0.02752321       0.00223074
Pt       2.89437145       0.04133023      26.91556973        1       0.00000000      -0.00436855       0.00803071       0.00408945
Pt       5.69686725       0.04514086      26.91023321        1       0.00000000      -0.01628238      -0.02354083       0.00579044
Pt       1.41425571       2.42688104      26.84522216        1       0.00000000      -0.01389674      -0.01210473       0.00070974
Pt       4.35725160       2.46228541      26.95151218        1       0.00000000       0.00007403       0.00764590      -0.00081444
Pt       7.11366660       2.46841596      26.93786931        1       0.00000000      -0.01186466       0.01688243       0.00831575
Pt       2.90995715       4.96659221      26.94632774        1       0.00000000      -0.00599332      -0.01072221       0.00822831
Pt       5.76038446       4.93848118      26.88097341        1       0.00000000      -0.00190712      -0.00443322      -0.01111607
Pt       8.50795905       4.90016762      26.91445904        1       0.00000000      -0.00388148       0.01471996       0.00256100
O        3.44542952       3.62062870      28.58179312        0       0.50000000       0.01577761       0.00491852       0.00878920
H        4.19277651       4.05582680      29.04896411        0       0.50000000       0.01590932       0.00531159      -0.00984423
