38
Lattice="8.421641763931781 0.0 0.0 4.2108208819658905 7.293355709136913 0.0 0.0 0.0 46.87624170604845" Properties=species:S:1:pos:R:3:tags:I:1:initial_magmoms:R:1:forces:R:3 charge=0 spin=0 energy=-196.55269571835362 free_energy=-196.55269571835362 stress="0.009086351841688156 -0.00036609897506423295 -0.00020818343909922987 -0.00036609897506423295 0.009477687068283558 -0.00011722220369847491 -0.00020818343909922987 -0.00011722220369847491 -0.00029742272454313934" pbc="T T T"
Pt      -0.00000001       0.00000015      19.95723445        4       0.00000000       0.00420776      -0.01224130      -0.02255401
Pt       2.80721394      -0.00000009      19.95723448        4       0.00000000      -0.00802116      -0.00577992       0.01259509
Pt       5.61442781      -0.00000017      19.95723450        4       0.00000000       0.01297335       0.00854399       0.03384463
Pt       1.40360720       2.43111836      19.95723436        4       0.00000000      -0.01145995      -0.01134696       0.01729030
Pt       4.21082078       2.43111836      19.95723446        4       0.00000000      -0.00150009      -0.00130735       0.01534243
Pt       7.01803484       2.43111844      19.95723431        4       0.00000000      -0.00529406       0.01194370      -0.02262445
Pt       2.80721414       4.86223727      19.95723413        4       0.00000000      -0.00178786       0.00160428       0.01252528
Pt       5.61442797       4.86223736      19.95723433        4       0.00000000      -0.00469236      -0.00108872       0.00358519
Pt       8.42164142       4.86223724      19.95723439        4       0.00000000      -0.01141736      -0.00429296       0.01709976
Pt       1.40360727       0.81037261      22.29206790        3       0.00000000      -0.03983042      -0.02033753      -0.08885910
Pt       4.21082126       0.81037249      22.29206793        3       0.00000000      -0.03401370      -0.00588582      -0.04778346
Pt       7.01803475       0.81037258      22.29206787        3       0.00000000       0.01002497       0.00918624       0.05267091
Pt       2.80721449       3.24149123      22.29206778        3       0.00000000      -0.02673152      -0.00885623      -0.03671629
Pt       5.61442761       3.24149123      22.29206789        3       0.00000000      -0.00725462      -0.00804827      -0.07273570
Pt       8.42164155       3.24149130      22.29206812        3       0.00000000      -0.03795977      -0.01670595      -0.09437712
Pt       4.21082090       5.67260997      22.29206743        3       0.00000000      -0.01637235       0.00608521      -0.07802901
Pt       7.01803489       5.67261038      22.29206778        3       0.00000000      -0.02204856      -0.01003617      -0.07549795
Pt       9.82524818       5.67261058      22.29206804        3       0.00000000      -0.02160139      -0.02316114      -0.04695437
Pt      -0.00000057       1.62074568      24.58417368        2       0.00000000      -0.05584217      -0.05253336      -0.23677248
Pt       2.80721445       1.62074549      24.58417387        2       0.00000000       0.15411729       0.01945387      -0.03218483
Pt       5.61442780       1.62074538      24.58417368        2       0.00000000      -0.21490002       0.18853572       0.49462938
Pt       1.40360635       4.05186441      24.58417386        2       0.00000000       0.09907255       0.10202247      -0.03361393
Pt       4.21082088       4.05186391      24.58417389        2       0.00000000       0.03417680       0.01258549      -0.02272170
Pt       7.01803505       4.05186405      24.58417404        2       0.00000000       0.12040851      -0.03966295      -0.12683956
Pt       2.80721273       6.48298348      24.58417381        2       0.00000000       0.04661645      -0.29219654       0.50073195
Pt       5.61442805       6.48298330      24.58417394        2       0.00000000       0.02777222       0.11704937      -0.12043423
Pt       8.42164222       6.48298341      24.58417373        2       0.00000000       0.02612902       0.00236815      -0.02431038
Pt       0.08678508       0.04475524      26.94072060        1       0.00000000       0.01246323       0.02968119       0.00155712
Pt       2.89449566       0.04135858      26.91577609        1       0.00000000      -0.00411847       0.00832601       0.00325054
Pt       5.69693135       0.04504180      26.91042365        1       0.00000000      -0.01633931      -0.02293647       0.00506805
Pt       1.41425412       2.42673756      26.84505350        1       0.00000000      -0.01392999      -0.01172270       0.00152362
Pt       4.35769732       2.46273076      26.95065796        1       0.00000000      -0.00130886       0.00537681       0.00225534
Pt       7.11380452       2.46852418      26.93815953        1       0.00000000      -0.01127353       0.01609034       0.00738259
Pt       2.91032838       4.96642943      26.94538103        1       0.00000000      -0.00790900      -0.01001703       0.01151872
Pt       5.76028012       4.93855406      26.88066678        1       0.00000000       0.00025358      -0.00402141      -0.00980572
Pt       8.50782883       4.90027072      26.91481418        1       0.00000000      -0.00285436       0.01449298       0.00108778
O        3.44597792       3.62119206      28.58121073        0       0.50000000       0.01104776       0.00118253       0.00784398
H        4.19301971       4.05610120      29.04892171        0       0.50000000       0.01919738       0.00765040      -0.00898814
