38
Lattice="8.421641763931781 0.0 0.0 4.2108208819658905 7.293355709136913 0.0 0.0 0.0 46.87624170604845" Properties=species:S:1:pos:R:3:tags:I:1:initial_magmoms:R:1:forces:R:3 charge=0 spin=0 energy=-196.54989763790928 free_energy=-196.54989763790928 stress="0.009120224975049496 -0.00040916696889325976 -0.00020418898202478886 -0.00040916696889325976 0.009479299187660217 -7.703040319029242e-05 -0.00020418898202478886 -7.703040319029242e-05 -0.0002867112634703517" pbc="T T T"
Pt      -0.00000001       0.00000015      19.95723445        4       0.00000000       0.00427946      -0.01101441      -0.02058406
Pt       2.80721394      -0.00000009      19.95723448        4       0.00000000      -0.00446276      -0.00520058       0.01395079
Pt       5.61442781      -0.00000017      19.95723450        4       0.00000000       0.01479013       0.00885458       0.03264824
Pt       1.40360720       2.43111836      19.95723436        4       0.00000000      -0.00848308      -0.01013980       0.01760941
Pt       4.21082078       2.43111836      19.95723446        4       0.00000000       0.00096111      -0.00070813       0.01462562
Pt       7.01803484       2.43111844      19.95723431        4       0.00000000      -0.00359872       0.01224829      -0.02197449
Pt       2.80721414       4.86223727      19.95723413        4       0.00000000       0.00083917       0.00186665       0.01216721
Pt       5.61442797       4.86223736      19.95723433        4       0.00000000      -0.00177139      -0.00058013       0.00333161
Pt       8.42164142       4.86223724      19.95723439        4       0.00000000      -0.00811671      -0.00388702       0.01787697
Pt       1.40360727       0.81037261      22.29206790        3       0.00000000      -0.03131738      -0.02053771      -0.08721990
Pt       4.21082126       0.81037249      22.29206793        3       0.00000000      -0.02274724      -0.00562344      -0.04801567
Pt       7.01803475       0.81037258      22.29206787        3       0.00000000       0.01690114       0.01145070       0.05013347
Pt       2.80721449       3.24149123      22.29206778        3       0.00000000      -0.01788940      -0.00932208      -0.03264846
Pt       5.61442761       3.24149123      22.29206789        3       0.00000000       0.00212637      -0.00634652      -0.07260696
Pt       8.42164155       3.24149130      22.29206812        3       0.00000000      -0.02852227      -0.01966208      -0.09228809
Pt       4.21082090       5.67260997      22.29206743        3       0.00000000      -0.00586261       0.00560133      -0.07788333
Pt       7.01803489       5.67261038      22.29206778        3       0.00000000      -0.01120747      -0.01026178      -0.07377441
Pt       9.82524818       5.67261058      22.29206804        3       0.00000000      -0.00965076      -0.02206416      -0.04743620
Pt      -0.00000057       1.62074568      24.58417368        2       0.00000000      -0.08490328      -0.04403085      -0.24119636
Pt       2.80721445       1.62074549      24.58417387        2       0.00000000       0.11745067       0.02986673      -0.01184207
Pt       5.61442780       1.62074538      24.58417368        2       0.00000000      -0.23168042       0.16818959       0.47373456
Pt       1.40360635       4.05186441      24.58417386        2       0.00000000       0.07456207       0.10257927      -0.00916487
Pt       4.21082088       4.05186391      24.58417389        2       0.00000000       0.00422575       0.01402648      -0.02644674
Pt       7.01803505       4.05186405      24.58417404        2       0.00000000       0.10126583      -0.03862115      -0.13324177
Pt       2.80721273       6.48298348      24.58417381        2       0.00000000       0.00098575      -0.28537393       0.50708640
Pt       5.61442805       6.48298330      24.58417394        2       0.00000000       0.00216336       0.12802976      -0.14078033
Pt       8.42164222       6.48298341      24.58417373        2       0.00000000      -0.00741352       0.00083456      -0.01897058
Pt       0.04584065       0.04563514      26.93596871        1       0.00000000      -0.00502736       0.00417319       0.00552149
Pt       2.84806247       0.04511668      26.91533902        1       0.00000000       0.02185082      -0.03177009       0.00090816
Pt       5.64916131       0.03484535      26.90970190        1       0.00000000       0.03054971      -0.01170313      -0.00230894
Pt       1.37450501       2.42568744      26.84929212        1       0.00000000       0.00554504       0.00294483      -0.00362046
Pt       4.31133305       2.45519444      26.95018908        1       0.00000000       0.01640660       0.02071894       0.01179717
Pt       7.06651567       2.46901395      26.93688498        1       0.00000000       0.02789055      -0.01099109       0.00380822
Pt       2.87221213       4.95448337      26.95135139        1       0.00000000       0.01412138       0.01854831      -0.00152374
Pt       5.71846632       4.93385304      26.87183278        1       0.00000000       0.03238242       0.00915829       0.00245196
Pt       8.46896308       4.89537717      26.91417293        1       0.00000000      -0.00423536       0.01908212      -0.00310871
O        3.44054732       3.63653130      28.59609529        0       0.50000000      -0.00024254      -0.02069138      -0.03588279
H        4.21562548       4.07615122      29.01167386        0       0.50000000      -0.00216521       0.01035590       0.03486778
