38
Lattice="8.421641763931781 0.0 0.0 4.2108208819658905 7.293355709136913 0.0 0.0 0.0 46.87624170604845" Properties=species:S:1:pos:R:3:tags:I:1:initial_magmoms:R:1:forces:R:3 charge=0 spin=0 energy=-196.55264612728917 free_energy=-196.55264612728917 stress="0.009689773432910442 1.3219236279837787e-05 1.0367922413934139e-06 1.3219236279837787e-05 0.00885754358023405 0.00023735851573292166 1.0367922413934139e-06 0.00023735851573292166 -0.00030523320310749114" pbc="T T T"
Pt      -0.00000001       0.00000015      19.95723445        4       0.00000000      -0.01265658       0.00250066      -0.02253268
Pt       2.80721394      -0.00000009      19.95723448        4       0.00000000       0.01310834      -0.00142337      -0.02274092
Pt       5.61442781      -0.00000017      19.95723450        4       0.00000000       0.00143810       0.00453602       0.00351182
Pt       1.40360720       2.43111836      19.95723436        4       0.00000000       0.00095714      -0.01556050       0.03384562
Pt       4.21082078       2.43111836      19.95723446        4       0.00000000      -0.00041810       0.00190111       0.01530087
Pt       7.01803484       2.43111844      19.95723431        4       0.00000000       0.00240036       0.00074132       0.01233385
Pt       2.80721414       4.86223727      19.95723413        4       0.00000000      -0.00101878       0.00978511       0.01270028
Pt       5.61442797       4.86223736      19.95723433        4       0.00000000      -0.00403864       0.01565293       0.01732347
Pt       8.42164142       4.86223724      19.95723439        4       0.00000000       0.00207101       0.01201648       0.01704478
Pt       1.40360727       0.81037261      22.29206790        3       0.00000000       0.00342898      -0.01321712       0.05377299
Pt       4.21082126       0.81037249      22.29206793        3       0.00000000      -0.00293349       0.01006109      -0.07286112
Pt       7.01803475       0.81037258      22.29206787        3       0.00000000       0.01347917       0.01124261      -0.07830966
Pt       2.80721449       3.24149123      22.29206778        3       0.00000000       0.01207190       0.03225720      -0.04782369
Pt       5.61442761       3.24149123      22.29206789        3       0.00000000       0.00579079       0.02755664      -0.03756192
Pt       8.42164155       3.24149130      22.29206812        3       0.00000000      -0.00934816       0.03036326      -0.04718073
Pt       4.21082090       5.67260997      22.29206743        3       0.00000000       0.00236247       0.04445941      -0.08840558
Pt       7.01803489       5.67261038      22.29206778        3       0.00000000       0.00491789       0.04102273      -0.09393185
Pt       9.82524818       5.67261058      22.29206804        3       0.00000000       0.00243652       0.02389718      -0.07547977
Pt      -0.00000057       1.62074568      24.58417368        2       0.00000000      -0.27433670       0.10542189       0.49983561
Pt       2.80721445       1.62074549      24.58417387        2       0.00000000       0.26706105       0.09099940       0.49229774
Pt       5.61442780       1.62074538      24.58417368        2       0.00000000      -0.00632376      -0.03684140      -0.02815345
Pt       1.40360635       4.05186441      24.58417386        2       0.00000000      -0.01196390      -0.02342501      -0.02386179
Pt       4.21082088       4.05186391      24.58417389        2       0.00000000      -0.06214704      -0.14173421      -0.03410890
Pt       7.01803505       4.05186405      24.58417404        2       0.00000000       0.03926839      -0.13542217      -0.03462704
Pt       2.80721273       6.48298348      24.58417381        2       0.00000000       0.08889798      -0.08268791      -0.12061801
Pt       5.61442805       6.48298330      24.58417394        2       0.00000000      -0.01760303       0.07617198      -0.23626181
Pt       8.42164222       6.48298341      24.58417373        2       0.00000000      -0.09724502      -0.08520734      -0.12810673
Pt      -0.00497929      -0.09697722      26.94137031        1       0.00000000       0.02023631      -0.02679471      -0.00078386
Pt       2.79111396      -0.10075665      26.93881090        1       0.00000000       0.01888885      -0.00064485       0.00501627
Pt       5.60694607      -0.16424706      26.87981688        1       0.00000000      -0.00293443       0.00209357      -0.00618947
Pt       1.40092820       2.33823162      26.91087581        1       0.00000000      -0.01170156       0.02264138       0.00370688
Pt       4.16467782       2.28852854      26.94834045        1       0.00000000       0.00748287      -0.00023809       0.01294089
Pt       7.05613154       2.28971878      26.94345677        1       0.00000000      -0.00536918       0.01266983       0.02029475
Pt       2.79832841       4.76653149      26.91608367        1       0.00000000       0.01210104      -0.00113827       0.00222917
Pt       5.60456965       4.85556625      26.84441954        1       0.00000000      -0.00195558       0.01942280       0.00472797
Pt       8.41095033       4.76914032      26.91522271        1       0.00000000       0.01305265      -0.00521568      -0.00038077
O        5.62494343       2.49775023      28.58068974        0       0.50000000      -0.00880706       0.01224634      -0.00651705
H        5.62648446       1.63406373      29.04865738        0       0.50000000      -0.00065075      -0.04011024      -0.00044622
