38
Lattice="8.421641763931781 0.0 0.0 4.2108208819658905 7.293355709136913 0.0 0.0 0.0 46.87624170604845" Properties=species:S:1:pos:R:3:tags:I:1:initial_magmoms:R:1:forces:R:3 charge=0 spin=0 energy=-196.5512938171085 free_energy=-196.5512938171085 stress="0.009092039428651333 -0.00039763087988831103 -0.00020739651517942548 -0.00039763087988831103 0.009426998905837536 -8.172228262992576e-05 -0.00020739651517942548 -8.172228262992576e-05 -0.000327402725815773" pbc="T T T"
Pt      -0.00000001       0.00000015      19.95723445        4       0.00000000       0.00501058      -0.01257166      -0.02260132
Pt       2.80721394      -0.00000009      19.95723448        4       0.00000000      -0.00572626      -0.00676519       0.01318561
Pt       5.61442781      -0.00000017      19.95723450        4       0.00000000       0.01493359       0.00822129       0.03338235
Pt       1.40360720       2.43111836      19.95723436        4       0.00000000      -0.00951626      -0.01173640       0.01739985
Pt       4.21082078       2.43111836      19.95723446        4       0.00000000       0.00050282      -0.00156363       0.01480797
Pt       7.01803484       2.43111844      19.95723431        4       0.00000000      -0.00401896       0.01161060      -0.02202409
Pt       2.80721414       4.86223727      19.95723413        4       0.00000000       0.00030550       0.00114615       0.01266290
Pt       5.61442797       4.86223736      19.95723433        4       0.00000000      -0.00286074      -0.00135109       0.00327185
Pt       8.42164142       4.86223724      19.95723439        4       0.00000000      -0.00937119      -0.00492267       0.01729671
Pt       1.40360727       0.81037261      22.29206790        3       0.00000000      -0.03370181      -0.02504279      -0.09044474
Pt       4.21082126       0.81037249      22.29206793        3       0.00000000      -0.02739100      -0.01001075      -0.04871226
Pt       7.01803475       0.81037258      22.29206787        3       0.00000000       0.01614831       0.00716395       0.05358233
Pt       2.80721449       3.24149123      22.29206778        3       0.00000000      -0.02085746      -0.01344736      -0.03571984
Pt       5.61442761       3.24149123      22.29206789        3       0.00000000      -0.00205253      -0.01042892      -0.07329439
Pt       8.42164155       3.24149130      22.29206812        3       0.00000000      -0.03121446      -0.02210940      -0.09518572
Pt       4.21082090       5.67260997      22.29206743        3       0.00000000      -0.00958867       0.00352485      -0.07734752
Pt       7.01803489       5.67261038      22.29206778        3       0.00000000      -0.01491422      -0.01437678      -0.07414470
Pt       9.82524818       5.67261058      22.29206804        3       0.00000000      -0.01392857      -0.02720374      -0.04584395
Pt      -0.00000057       1.62074568      24.58417368        2       0.00000000      -0.08673924      -0.04175881      -0.24793735
Pt       2.80721445       1.62074549      24.58417387        2       0.00000000       0.13421629       0.03922280      -0.03475563
Pt       5.61442780       1.62074538      24.58417368        2       0.00000000      -0.22582686       0.18945253       0.49658680
Pt       1.40360635       4.05186441      24.58417386        2       0.00000000       0.08517795       0.13032997      -0.03846391
Pt       4.21082088       4.05186391      24.58417389        2       0.00000000       0.01672419       0.02634243      -0.02410435
Pt       7.01803505       4.05186405      24.58417404        2       0.00000000       0.09605514      -0.02351796      -0.12655030
Pt       2.80721273       6.48298348      24.58417381        2       0.00000000       0.02082605      -0.28286460       0.50959039
Pt       5.61442805       6.48298330      24.58417394        2       0.00000000       0.00619407       0.13269809      -0.14003921
Pt       8.42164222       6.48298341      24.58417373        2       0.00000000       0.00597568       0.01695794      -0.02849942
Pt       0.05877469       0.05980419      26.93779773        1       0.00000000       0.00400683       0.01053513       0.00639905
Pt       2.86165276       0.05886119      26.91242308        1       0.00000000       0.02958278      -0.01856954       0.01312161
Pt       5.67020823       0.04460175      26.91070891        1       0.00000000       0.00615161       0.00660367      -0.00408021
Pt       1.38673934       2.44346235      26.83972687        1       0.00000000      -0.00245279      -0.02618066       0.02847923
Pt       4.33579710       2.46874083      26.94794232        1       0.00000000       0.00037867      -0.01123420      -0.00519502
Pt       7.08374706       2.48854710      26.93896212        1       0.00000000       0.01984859      -0.03481844       0.00271689
Pt       2.89050348       4.96937737      26.95066946        1       0.00000000      -0.00503299       0.01403474      -0.00498029
Pt       5.73372449       4.95215783      26.87941294        1       0.00000000       0.00965114      -0.01726041      -0.00662737
Pt       8.47800226       4.91442083      26.91272892        1       0.00000000       0.02431053       0.00375688       0.00835623
O        3.43678600       3.61892076      28.58135177        0       0.50000000       0.02213942       0.00563151       0.04101963
H        4.19064394       4.04518865      29.04757272        0       0.50000000      -0.01294589       0.01050260      -0.02530792
