38
Lattice="8.421641763931781 0.0 0.0 4.2108208819658905 7.293355709136913 0.0 0.0 0.0 46.87624170604845" Properties=species:S:1:pos:R:3:tags:I:1:initial_magmoms:R:1:forces:R:3 charge=0 spin=0 energy=-196.55135103756749 free_energy=-196.55135103756749 stress="0.009093052707612514 -0.00039754813769832253 -0.0002069405745714903 -0.00039754813769832253 0.009427088312804699 -8.13281731097959e-05 -0.0002069405745714903 -8.13281731097959e-05 -0.000326169392792508" pbc="T T T"
Pt      -0.00000001       0.00000015      19.95723445        4       0.00000000       0.00498940      -0.01255984      -0.02258423
Pt       2.80721394      -0.00000009      19.95723448        4       0.00000000      -0.00575784      -0.00675476       0.01318839
Pt       5.61442781      -0.00000017      19.95723450        4       0.00000000       0.01494719       0.00823266       0.03339467
Pt       1.40360720       2.43111836      19.95723436        4       0.00000000      -0.00952192      -0.01172686       0.01739817
Pt       4.21082078       2.43111836      19.95723446        4       0.00000000       0.00047624      -0.00157160       0.01481213
Pt       7.01803484       2.43111844      19.95723431        4       0.00000000      -0.00402704       0.01163923      -0.02203794
Pt       2.80721414       4.86223727      19.95723413        4       0.00000000       0.00027836       0.00114972       0.01267386
Pt       5.61442797       4.86223736      19.95723433        4       0.00000000      -0.00286102      -0.00135201       0.00328216
Pt       8.42164142       4.86223724      19.95723439        4       0.00000000      -0.00939698      -0.00494907       0.01728681
Pt       1.40360727       0.81037261      22.29206790        3       0.00000000      -0.03372755      -0.02501037      -0.09034450
Pt       4.21082126       0.81037249      22.29206793        3       0.00000000      -0.02739978      -0.00999744      -0.04884554
Pt       7.01803475       0.81037258      22.29206787        3       0.00000000       0.01605302       0.00724220       0.05357448
Pt       2.80721449       3.24149123      22.29206778        3       0.00000000      -0.02090428      -0.01342180      -0.03568491
Pt       5.61442761       3.24149123      22.29206789        3       0.00000000      -0.00209637      -0.01043911      -0.07335579
Pt       8.42164155       3.24149130      22.29206812        3       0.00000000      -0.03128874      -0.02207020      -0.09512020
Pt       4.21082090       5.67260997      22.29206743        3       0.00000000      -0.00966399       0.00353523      -0.07734971
Pt       7.01803489       5.67261038      22.29206778        3       0.00000000      -0.01494364      -0.01436806      -0.07414942
Pt       9.82524818       5.67261058      22.29206804        3       0.00000000      -0.01397981      -0.02715334      -0.04598521
Pt      -0.00000057       1.62074568      24.58417368        2       0.00000000      -0.08641490      -0.04167886      -0.24888110
Pt       2.80721445       1.62074549      24.58417387        2       0.00000000       0.13374282       0.03918863      -0.03400558
Pt       5.61442780       1.62074538      24.58417368        2       0.00000000      -0.22551571       0.18938501       0.49627823
Pt       1.40360635       4.05186441      24.58417386        2       0.00000000       0.08543330       0.12973562      -0.03741796
Pt       4.21082088       4.05186391      24.58417389        2       0.00000000       0.01666626       0.02653386      -0.02411650
Pt       7.01803505       4.05186405      24.58417404        2       0.00000000       0.09633335      -0.02348881      -0.12644720
Pt       2.80721273       6.48298348      24.58417381        2       0.00000000       0.02107320      -0.28313789       0.51032525
Pt       5.61442805       6.48298330      24.58417394        2       0.00000000       0.00639286       0.13262615      -0.13978773
Pt       8.42164222       6.48298341      24.58417373        2       0.00000000       0.00601599       0.01682684      -0.02831997
Pt       0.05919962       0.06015643      26.93779286        1       0.00000000       0.00235580       0.00708267       0.00677076
Pt       2.86191602       0.05869543      26.91259391        1       0.00000000       0.02947138      -0.01817652       0.01250936
Pt       5.67033735       0.04471770      26.91072007        1       0.00000000       0.00662534       0.00581513      -0.00422753
Pt       1.38646554       2.44314610      26.84007597        1       0.00000000       0.00121359      -0.02392673       0.02720989
Pt       4.33583850       2.46867743      26.94773944        1       0.00000000       0.00108272      -0.01078451      -0.00464490
Pt       7.08428061       2.48843484      26.93893193        1       0.00000000       0.01640785      -0.03399127       0.00316878
Pt       2.89069847       4.96938448      26.95081793        1       0.00000000      -0.00467820       0.01536789      -0.00608603
Pt       5.73386839       4.95203729      26.87936996        1       0.00000000       0.00989522      -0.01698470      -0.00672934
Pt       8.47837521       4.91442484      26.91281476        1       0.00000000       0.02355792       0.00380412       0.00809400
O        3.43681600       3.61924581      28.58122561        0       0.50000000       0.02488345       0.00550458       0.04292709
H        4.19103816       4.04505177      29.04743368        0       0.50000000      -0.01571758       0.00987410      -0.02677257
