38
Lattice="8.421641763931781 0.0 0.0 4.2108208819658905 7.293355709136913 0.0 0.0 0.0 46.87624170604845" Properties=species:S:1:pos:R:3:tags:I:1:initial_magmoms:R:1:forces:R:3 charge=0 spin=0 energy=-194.61144396359288 free_energy=-194.61144396359288 stress="0.009887180291116238 0.0001518058852525428 -5.510275059350533e-06 0.0001518058852525428 0.009726323187351227 -4.515378350333776e-06 -5.510275059350533e-06 -4.515378350333776e-06 -0.0001257390686077997" pbc="T T T"
Pt      -0.00000001       0.00000015      19.95723445        4       0.00000000      -0.00334541       0.00406521      -0.00273716
Pt       2.80721394      -0.00000009      19.95723448        4       0.00000000       0.00027113      -0.00091675       0.01413380
Pt       5.61442781      -0.00000017      19.95723450        4       0.00000000       0.00238646       0.00153514       0.00958736
Pt       1.40360720       2.43111836      19.95723436        4       0.00000000      -0.00365028      -0.00384919       0.01149783
Pt       4.21082078       2.43111836      19.95723446        4       0.00000000       0.00284016      -0.00099929       0.01179127
Pt       7.01803484       2.43111844      19.95723431        4       0.00000000       0.00233114      -0.00464789      -0.00283292
Pt       2.80721414       4.86223727      19.95723413        4       0.00000000      -0.00162765       0.00316186       0.01059130
Pt       5.61442797       4.86223736      19.95723433        4       0.00000000       0.00133895       0.00122927       0.01233512
Pt       8.42164142       4.86223724      19.95723439        4       0.00000000      -0.00114302       0.00043424       0.01303088
Pt       1.40360727       0.81037261      22.29206790        3       0.00000000       0.00102981      -0.00601807      -0.02138163
Pt       4.21082126       0.81037249      22.29206793        3       0.00000000      -0.00834146      -0.00044477      -0.04074315
Pt       7.01803475       0.81037258      22.29206787        3       0.00000000      -0.00168138      -0.00047821       0.02729072
Pt       2.80721449       3.24149123      22.29206778        3       0.00000000       0.00316534       0.00413975      -0.03434103
Pt       5.61442761       3.24149123      22.29206789        3       0.00000000      -0.00077010       0.00780463      -0.04154332
Pt       8.42164155       3.24149130      22.29206812        3       0.00000000      -0.00238500       0.00445376      -0.02404682
Pt       4.21082090       5.67260997      22.29206743        3       0.00000000       0.00547235      -0.00547969      -0.04185962
Pt       7.01803489       5.67261038      22.29206778        3       0.00000000       0.00123951       0.00238576      -0.04191595
Pt       9.82524818       5.67261058      22.29206804        3       0.00000000      -0.00396196      -0.00990086      -0.03961604
Pt      -0.00000057       1.62074568      24.58417368        2       0.00000000       0.02197267       0.01118137       0.02695612
Pt       2.80721445       1.62074549      24.58417387        2       0.00000000      -0.01090804      -0.00105137       0.01967288
Pt       5.61442780       1.62074538      24.58417368        2       0.00000000       0.02285057      -0.00321953      -0.02082138
Pt       1.40360635       4.05186441      24.58417386        2       0.00000000      -0.01101750      -0.01627105       0.02429381
Pt       4.21082088       4.05186391      24.58417389        2       0.00000000      -0.00107159      -0.00132565       0.04328873
Pt       7.01803505       4.05186405      24.58417404        2       0.00000000      -0.01704140       0.00617564       0.02524996
Pt       2.80721273       6.48298348      24.58417381        2       0.00000000      -0.00020421       0.01922915      -0.02340457
Pt       5.61442805       6.48298330      24.58417394        2       0.00000000      -0.00393606      -0.01238332       0.02462726
Pt       8.42164222       6.48298341      24.58417373        2       0.00000000       0.00024993      -0.00282727       0.01507456
Pt       0.00255502       0.00551053      26.91671304        1       0.00000000       0.02074447       0.00749336       0.01043808
Pt       2.80562808      -0.00632653      26.91592562        1       0.00000000      -0.02110510      -0.00644135       0.00426852
Pt       5.61380249      -0.00056500      26.91716549        1       0.00000000       0.00132206       0.00039203       0.02313878
Pt       1.39457234       2.42626902      26.92069018        1       0.00000000       0.03947856       0.02482493       0.00048482
Pt       4.23373930       2.38911704      26.90584534        1       0.00000000      -0.00198830       0.00071837      -0.00344645
Pt       7.02510908       2.43017127      26.91578343        1       0.00000000       0.01612118       0.01265297       0.00858575
Pt       2.78371907       4.90414694      26.90615928        1       0.00000000       0.00273698      -0.00065669      -0.00098886
Pt       5.62325089       4.86731683      26.92027495        1       0.00000000      -0.04107065      -0.02519924      -0.00649175
Pt       8.41438953       4.86412268      26.91479694        1       0.00000000      -0.01740456      -0.01448358       0.00188865
O        3.50685020       3.64567260      29.43507609        0       0.50000000      -0.02606380      -0.01181504       0.00946647
H        3.51215199       3.64832058      28.44130826        0       0.50000000       0.03316593       0.01653161      -0.00152201
