38
Lattice="8.421641763931781 0.0 0.0 4.2108208819658905 7.293355709136913 0.0 0.0 0.0 46.87624170604845" Properties=species:S:1:pos:R:3:tags:I:1:initial_magmoms:R:1:forces:R:3 charge=0 spin=0 energy=-194.61144396359288 free_energy=-194.61144396359288 stress="0.009887181222438812 0.0001518078934168443 -5.510713890544139e-06 0.0001518078934168443 0.00972632598131895 -4.514966349233873e-06 -5.510713890544139e-06 -4.514966349233873e-06 -0.00012573717685882002" pbc="T T T"
Pt      -0.00000001       0.00000015      19.95723445        4       0.00000000      -0.00334541       0.00406538      -0.00273704
Pt       2.80721394      -0.00000009      19.95723448        4       0.00000000       0.00027101      -0.00091665       0.01413393
Pt       5.61442781      -0.00000017      19.95723450        4       0.00000000       0.00238648       0.00153511       0.00958712
Pt       1.40360720       2.43111836      19.95723436        4       0.00000000      -0.00365037      -0.00384937       0.01149795
Pt       4.21082078       2.43111836      19.95723446        4       0.00000000       0.00284011      -0.00099937       0.01179125
Pt       7.01803484       2.43111844      19.95723431        4       0.00000000       0.00233125      -0.00464807      -0.00283282
Pt       2.80721414       4.86223727      19.95723413        4       0.00000000      -0.00162760       0.00316180       0.01059140
Pt       5.61442797       4.86223736      19.95723433        4       0.00000000       0.00133891       0.00122942       0.01233519
Pt       8.42164142       4.86223724      19.95723439        4       0.00000000      -0.00114293       0.00043422       0.01303082
Pt       1.40360727       0.81037261      22.29206790        3       0.00000000       0.00102963      -0.00601814      -0.02138174
Pt       4.21082126       0.81037249      22.29206793        3       0.00000000      -0.00834169      -0.00044490      -0.04074313
Pt       7.01803475       0.81037258      22.29206787        3       0.00000000      -0.00168149      -0.00047819       0.02729114
Pt       2.80721449       3.24149123      22.29206778        3       0.00000000       0.00316543       0.00413992      -0.03434100
Pt       5.61442761       3.24149123      22.29206789        3       0.00000000      -0.00077016       0.00780479      -0.04154341
Pt       8.42164155       3.24149130      22.29206812        3       0.00000000      -0.00238512       0.00445368      -0.02404708
Pt       4.21082090       5.67260997      22.29206743        3       0.00000000       0.00547232      -0.00547991      -0.04185947
Pt       7.01803489       5.67261038      22.29206778        3       0.00000000       0.00123930       0.00238574      -0.04191594
Pt       9.82524818       5.67261058      22.29206804        3       0.00000000      -0.00396188      -0.00990093      -0.03961609
Pt      -0.00000057       1.62074568      24.58417368        2       0.00000000       0.02197278       0.01118148       0.02695608
Pt       2.80721445       1.62074549      24.58417387        2       0.00000000      -0.01090797      -0.00105083       0.01967348
Pt       5.61442780       1.62074538      24.58417368        2       0.00000000       0.02285098      -0.00321985      -0.02082269
Pt       1.40360635       4.05186441      24.58417386        2       0.00000000      -0.01101703      -0.01627108       0.02429435
Pt       4.21082088       4.05186391      24.58417389        2       0.00000000      -0.00107191      -0.00132604       0.04329023
Pt       7.01803505       4.05186405      24.58417404        2       0.00000000      -0.01704141       0.00617579       0.02524999
Pt       2.80721273       6.48298348      24.58417381        2       0.00000000      -0.00020399       0.01922922      -0.02340474
Pt       5.61442805       6.48298330      24.58417394        2       0.00000000      -0.00393598      -0.01238348       0.02462734
Pt       8.42164222       6.48298341      24.58417373        2       0.00000000       0.00025010      -0.00282724       0.01507410
Pt       0.00255508       0.00551067      26.91671301        1       0.00000000       0.02074463       0.00749252       0.01043784
Pt       2.80562795      -0.00632667      26.91592558        1       0.00000000      -0.02110565      -0.00644137       0.00426861
Pt       5.61380248      -0.00056502      26.91716556        1       0.00000000       0.00132241       0.00039151       0.02313948
Pt       1.39457235       2.42626902      26.92069020        1       0.00000000       0.03948046       0.02482532       0.00048386
Pt       4.23373975       2.38911631      26.90584515        1       0.00000000      -0.00199218       0.00072384      -0.00344687
Pt       7.02510931       2.43017131      26.91578341        1       0.00000000       0.01612298       0.01265327       0.00858592
Pt       2.78371868       4.90414766      26.90615906        1       0.00000000       0.00273801      -0.00066007      -0.00098842
Pt       5.62325089       4.86731682      26.92027494        1       0.00000000      -0.04107216      -0.02520003      -0.00649150
Pt       8.41438934       4.86412264      26.91479687        1       0.00000000      -0.01740423      -0.01448416       0.00188865
O        3.50685008       3.64567255      29.43507515        0       0.50000000      -0.02606500      -0.01181474       0.00946545
H        3.51215215       3.64832066      28.44130963        0       0.50000000       0.03316716       0.01653152      -0.00152218
