38
Lattice="8.421641763931781 0.0 0.0 4.2108208819658905 7.293355709136913 0.0 0.0 0.0 46.87624170604845" Properties=species:S:1:pos:R:3:tags:I:1:initial_magmoms:R:1:forces:R:3 charge=0 spin=0 energy=-194.6114458709415 free_energy=-194.6114458709415 stress="0.00988718494772911 0.0001518091157777235 -5.511593826668104e-06 0.0001518091157777235 0.0097263278439641 -4.51504683951498e-06 -5.511593826668104e-06 -4.51504683951498e-06 -0.00012573727872222662" pbc="T T T"
Pt      -0.00000001       0.00000015      19.95723445        4       0.00000000      -0.00334524       0.00406527      -0.00273712
Pt       2.80721394      -0.00000009      19.95723448        4       0.00000000       0.00027112      -0.00091672       0.01413389
Pt       5.61442781      -0.00000017      19.95723450        4       0.00000000       0.00238635       0.00153503       0.00958710
Pt       1.40360720       2.43111836      19.95723436        4       0.00000000      -0.00365025      -0.00384933       0.01149776
Pt       4.21082078       2.43111836      19.95723446        4       0.00000000       0.00284020      -0.00099940       0.01179108
Pt       7.01803484       2.43111844      19.95723431        4       0.00000000       0.00233126      -0.00464789      -0.00283301
Pt       2.80721414       4.86223727      19.95723413        4       0.00000000      -0.00162775       0.00316185       0.01059143
Pt       5.61442797       4.86223736      19.95723433        4       0.00000000       0.00133889       0.00122934       0.01233514
Pt       8.42164142       4.86223724      19.95723439        4       0.00000000      -0.00114295       0.00043436       0.01303086
Pt       1.40360727       0.81037261      22.29206790        3       0.00000000       0.00102963      -0.00601814      -0.02138172
Pt       4.21082126       0.81037249      22.29206793        3       0.00000000      -0.00834171      -0.00044488      -0.04074321
Pt       7.01803475       0.81037258      22.29206787        3       0.00000000      -0.00168150      -0.00047831       0.02729103
Pt       2.80721449       3.24149123      22.29206778        3       0.00000000       0.00316538       0.00413992      -0.03434081
Pt       5.61442761       3.24149123      22.29206789        3       0.00000000      -0.00077027       0.00780477      -0.04154344
Pt       8.42164155       3.24149130      22.29206812        3       0.00000000      -0.00238506       0.00445378      -0.02404688
Pt       4.21082090       5.67260997      22.29206743        3       0.00000000       0.00547230      -0.00547984      -0.04185953
Pt       7.01803489       5.67261038      22.29206778        3       0.00000000       0.00123938       0.00238572      -0.04191600
Pt       9.82524818       5.67261058      22.29206804        3       0.00000000      -0.00396198      -0.00990094      -0.03961597
Pt      -0.00000057       1.62074568      24.58417368        2       0.00000000       0.02197284       0.01118143       0.02695629
Pt       2.80721445       1.62074549      24.58417387        2       0.00000000      -0.01090800      -0.00105080       0.01967333
Pt       5.61442780       1.62074538      24.58417368        2       0.00000000       0.02285112      -0.00321980      -0.02082259
Pt       1.40360635       4.05186441      24.58417386        2       0.00000000      -0.01101706      -0.01627108       0.02429440
Pt       4.21082088       4.05186391      24.58417389        2       0.00000000      -0.00107182      -0.00132609       0.04329016
Pt       7.01803505       4.05186405      24.58417404        2       0.00000000      -0.01704126       0.00617573       0.02525008
Pt       2.80721273       6.48298348      24.58417381        2       0.00000000      -0.00020407       0.01922928      -0.02340462
Pt       5.61442805       6.48298330      24.58417394        2       0.00000000      -0.00393593      -0.01238339       0.02462744
Pt       8.42164222       6.48298341      24.58417373        2       0.00000000       0.00025011      -0.00282737       0.01507425
Pt       0.00255516       0.00551065      26.91671304        1       0.00000000       0.02074465       0.00749250       0.01043767
Pt       2.80562796      -0.00632667      26.91592560        1       0.00000000      -0.02110567      -0.00644138       0.00426854
Pt       5.61380249      -0.00056501      26.91716555        1       0.00000000       0.00132244       0.00039148       0.02313938
Pt       1.39457233       2.42626904      26.92069021        1       0.00000000       0.03948031       0.02482536       0.00048488
Pt       4.23373969       2.38911632      26.90584510        1       0.00000000      -0.00199221       0.00072381      -0.00344675
Pt       7.02510926       2.43017131      26.91578339        1       0.00000000       0.01612298       0.01265319       0.00858590
Pt       2.78371871       4.90414766      26.90615908        1       0.00000000       0.00273788      -0.00066013      -0.00098831
Pt       5.62325088       4.86731682      26.92027493        1       0.00000000      -0.04107198      -0.02520005      -0.00649237
Pt       8.41438932       4.86412265      26.91479687        1       0.00000000      -0.01740435      -0.01448409       0.00188861
O        3.50685009       3.64567254      29.43507512        0       0.50000000      -0.02606491      -0.01181490       0.00946528
H        3.51215215       3.64832066      28.44130966        0       0.50000000       0.03316718       0.01653171      -0.00152218
