38
Lattice="8.421641763931781 0.0 0.0 4.2108208819658905 7.293355709136913 0.0 0.0 0.0 46.87624170604845" Properties=species:S:1:pos:R:3:tags:I:1:initial_magmoms:R:1:forces:R:3 charge=0 spin=0 energy=-194.61144396359288 free_energy=-194.61144396359288 stress="0.009887183085083961 0.0001518076314823702 -5.511021299753338e-06 0.0001518076314823702 0.0097263278439641 -4.5153137762099504e-06 -5.511021299753338e-06 -4.5153137762099504e-06 -0.000125735008623451" pbc="T T T"
Pt      -0.00000001       0.00000015      19.95723445        4       0.00000000      -0.00334539       0.00406540      -0.00273712
Pt       2.80721394      -0.00000009      19.95723448        4       0.00000000       0.00027105      -0.00091670       0.01413391
Pt       5.61442781      -0.00000017      19.95723450        4       0.00000000       0.00238649       0.00153508       0.00958717
Pt       1.40360720       2.43111836      19.95723436        4       0.00000000      -0.00365028      -0.00384932       0.01149791
Pt       4.21082078       2.43111836      19.95723446        4       0.00000000       0.00283996      -0.00099936       0.01179121
Pt       7.01803484       2.43111844      19.95723431        4       0.00000000       0.00233129      -0.00464791      -0.00283299
Pt       2.80721414       4.86223727      19.95723413        4       0.00000000      -0.00162755       0.00316193       0.01059134
Pt       5.61442797       4.86223736      19.95723433        4       0.00000000       0.00133901       0.00122935       0.01233523
Pt       8.42164142       4.86223724      19.95723439        4       0.00000000      -0.00114303       0.00043432       0.01303082
Pt       1.40360727       0.81037261      22.29206790        3       0.00000000       0.00102965      -0.00601817      -0.02138179
Pt       4.21082126       0.81037249      22.29206793        3       0.00000000      -0.00834162      -0.00044490      -0.04074319
Pt       7.01803475       0.81037258      22.29206787        3       0.00000000      -0.00168154      -0.00047827       0.02729109
Pt       2.80721449       3.24149123      22.29206778        3       0.00000000       0.00316543       0.00413986      -0.03434094
Pt       5.61442761       3.24149123      22.29206789        3       0.00000000      -0.00077024       0.00780475      -0.04154329
Pt       8.42164155       3.24149130      22.29206812        3       0.00000000      -0.00238514       0.00445383      -0.02404705
Pt       4.21082090       5.67260997      22.29206743        3       0.00000000       0.00547226      -0.00547990      -0.04185963
Pt       7.01803489       5.67261038      22.29206778        3       0.00000000       0.00123942       0.00238577      -0.04191593
Pt       9.82524818       5.67261058      22.29206804        3       0.00000000      -0.00396199      -0.00990095      -0.03961599
Pt      -0.00000057       1.62074568      24.58417368        2       0.00000000       0.02197270       0.01118143       0.02695620
Pt       2.80721445       1.62074549      24.58417387        2       0.00000000      -0.01090795      -0.00105092       0.01967339
Pt       5.61442780       1.62074538      24.58417368        2       0.00000000       0.02285096      -0.00321983      -0.02082255
Pt       1.40360635       4.05186441      24.58417386        2       0.00000000      -0.01101708      -0.01627103       0.02429439
Pt       4.21082088       4.05186391      24.58417389        2       0.00000000      -0.00107178      -0.00132599       0.04329020
Pt       7.01803505       4.05186405      24.58417404        2       0.00000000      -0.01704138       0.00617573       0.02525002
Pt       2.80721273       6.48298348      24.58417381        2       0.00000000      -0.00020406       0.01922923      -0.02340474
Pt       5.61442805       6.48298330      24.58417394        2       0.00000000      -0.00393593      -0.01238348       0.02462740
Pt       8.42164222       6.48298341      24.58417373        2       0.00000000       0.00025007      -0.00282736       0.01507416
Pt       0.00255506       0.00551067      26.91671302        1       0.00000000       0.02074457       0.00749243       0.01043782
Pt       2.80562797      -0.00632664      26.91592559        1       0.00000000      -0.02110551      -0.00644148       0.00426861
Pt       5.61380249      -0.00056501      26.91716556        1       0.00000000       0.00132249       0.00039149       0.02313933
Pt       1.39457234       2.42626904      26.92069021        1       0.00000000       0.03948078       0.02482538       0.00048426
Pt       4.23373980       2.38911626      26.90584511        1       0.00000000      -0.00199203       0.00072388      -0.00344677
Pt       7.02510937       2.43017131      26.91578338        1       0.00000000       0.01612289       0.01265327       0.00858602
Pt       2.78371863       4.90414770      26.90615906        1       0.00000000       0.00273809      -0.00065993      -0.00098850
Pt       5.62325080       4.86731676      26.92027494        1       0.00000000      -0.04107252      -0.02520006      -0.00649192
Pt       8.41438934       4.86412265      26.91479686        1       0.00000000      -0.01740427      -0.01448403       0.00188874
O        3.50685008       3.64567255      29.43507515        0       0.50000000      -0.02606496      -0.01181475       0.00946494
H        3.51215216       3.64832066      28.44130966        0       0.50000000       0.03316712       0.01653147      -0.00152196
