38
Lattice="8.421641763931781 0.0 0.0 4.2108208819658905 7.293355709136913 0.0 0.0 0.0 46.87624170604845" Properties=species:S:1:pos:R:3:tags:I:1:initial_magmoms:R:1:forces:R:3 charge=0 spin=0 energy=-196.54990335995518 free_energy=-196.54990335995518 stress="0.009120319969952106 -0.0004091324226465076 -0.00020413222955539823 -0.0004091324226465076 0.009479286149144173 -7.699983689235523e-05 -0.00020413222955539823 -7.699983689235523e-05 -0.0002866924914997071" pbc="T T T"
Pt      -0.00000001       0.00000015      19.95723445        4       0.00000000       0.00427962      -0.01101492      -0.02058446
Pt       2.80721394      -0.00000009      19.95723448        4       0.00000000      -0.00446284      -0.00520098       0.01395073
Pt       5.61442781      -0.00000017      19.95723450        4       0.00000000       0.01479040       0.00885414       0.03264821
Pt       1.40360720       2.43111836      19.95723436        4       0.00000000      -0.00848326      -0.01013961       0.01760901
Pt       4.21082078       2.43111836      19.95723446        4       0.00000000       0.00095992      -0.00070839       0.01462585
Pt       7.01803484       2.43111844      19.95723431        4       0.00000000      -0.00359883       0.01224783      -0.02197452
Pt       2.80721414       4.86223727      19.95723413        4       0.00000000       0.00083901       0.00186596       0.01216765
Pt       5.61442797       4.86223736      19.95723433        4       0.00000000      -0.00177147      -0.00058031       0.00333129
Pt       8.42164142       4.86223724      19.95723439        4       0.00000000      -0.00811819      -0.00388780       0.01787646
Pt       1.40360727       0.81037261      22.29206790        3       0.00000000      -0.03131920      -0.02053870      -0.08722082
Pt       4.21082126       0.81037249      22.29206793        3       0.00000000      -0.02274770      -0.00562395      -0.04801579
Pt       7.01803475       0.81037258      22.29206787        3       0.00000000       0.01690083       0.01144839       0.05012972
Pt       2.80721449       3.24149123      22.29206778        3       0.00000000      -0.01789225      -0.00932153      -0.03264366
Pt       5.61442761       3.24149123      22.29206789        3       0.00000000       0.00212439      -0.00634871      -0.07260846
Pt       8.42164155       3.24149130      22.29206812        3       0.00000000      -0.02852498      -0.01966348      -0.09228846
Pt       4.21082090       5.67260997      22.29206743        3       0.00000000      -0.00586507       0.00560078      -0.07788455
Pt       7.01803489       5.67261038      22.29206778        3       0.00000000      -0.01120869      -0.01026339      -0.07377061
Pt       9.82524818       5.67261058      22.29206804        3       0.00000000      -0.00965300      -0.02206484      -0.04743925
Pt      -0.00000057       1.62074568      24.58417368        2       0.00000000      -0.08490065      -0.04402481      -0.24121392
Pt       2.80721445       1.62074549      24.58417387        2       0.00000000       0.11745906       0.02987160      -0.01182944
Pt       5.61442780       1.62074538      24.58417368        2       0.00000000      -0.23169100       0.16819884       0.47373873
Pt       1.40360635       4.05186441      24.58417386        2       0.00000000       0.07458159       0.10258333      -0.00915776
Pt       4.21082088       4.05186391      24.58417389        2       0.00000000       0.00421601       0.01402476      -0.02644335
Pt       7.01803505       4.05186405      24.58417404        2       0.00000000       0.10128134      -0.03860893      -0.13326351
Pt       2.80721273       6.48298348      24.58417381        2       0.00000000       0.00099530      -0.28537372       0.50711238
Pt       5.61442805       6.48298330      24.58417394        2       0.00000000       0.00217327       0.12803173      -0.14079237
Pt       8.42164222       6.48298341      24.58417373        2       0.00000000      -0.00741586       0.00083143      -0.01896052
Pt       0.04586030       0.04564791      26.93596557        1       0.00000000      -0.00509599       0.00413439       0.00553224
Pt       2.84806426       0.04511853      26.91534258        1       0.00000000       0.02188126      -0.03177292       0.00089521
Pt       5.64915926       0.03485250      26.90969949        1       0.00000000       0.03058387      -0.01171979      -0.00231007
Pt       1.37450562       2.42568984      26.84929550        1       0.00000000       0.00558546       0.00297368      -0.00361941
Pt       4.31133484       2.45520097      26.95019655        1       0.00000000       0.01642298       0.02069678       0.01176328
Pt       7.06651633       2.46902341      26.93687881        1       0.00000000       0.02790540      -0.01102137       0.00383623
Pt       2.87223071       4.95450233      26.95136081        1       0.00000000       0.01407580       0.01853646      -0.00156289
Pt       5.71847086       4.93385047      26.87182649        1       0.00000000       0.03240209       0.00919343       0.00248170
Pt       8.46898145       4.89537499      26.91417422        1       0.00000000      -0.00427543       0.01911777      -0.00311676
O        3.44056027       3.63653120      28.59609437        0       0.50000000      -0.00000649      -0.02051779      -0.03568470
H        4.21563314       4.07615718      29.01169456        0       0.50000000      -0.00242686       0.01018445       0.03468684
