38
Lattice="8.421641763931781 0.0 0.0 4.2108208819658905 7.293355709136913 0.0 0.0 0.0 46.87624170604845" Properties=species:S:1:pos:R:3:tags:I:1:initial_magmoms:R:1:forces:R:3 charge=0 spin=0 energy=-196.55270334774815 free_energy=-196.55270334774815 stress="0.009703093208372593 1.4078397725825198e-05 2.6333136702305637e-06 1.4078397725825198e-05 0.008870571851730347 0.0002385626721661538 2.6333136702305637e-06 0.0002385626721661538 -0.00028778697014786303" pbc="T T T"
Pt      -0.00000001       0.00000015      19.95723445        4       0.00000000      -0.01256165       0.00262345      -0.02240755
Pt       2.80721394      -0.00000009      19.95723448        4       0.00000000       0.01316522      -0.00134678      -0.02279400
Pt       5.61442781      -0.00000017      19.95723450        4       0.00000000       0.00144261       0.00465347       0.00354494
Pt       1.40360720       2.43111836      19.95723436        4       0.00000000       0.00097088      -0.01538046       0.03386191
Pt       4.21082078       2.43111836      19.95723446        4       0.00000000      -0.00040902       0.00202901       0.01534468
Pt       7.01803484       2.43111844      19.95723431        4       0.00000000       0.00230862       0.00087337       0.01238001
Pt       2.80721414       4.86223727      19.95723413        4       0.00000000      -0.00105578       0.00989443       0.01272496
Pt       5.61442797       4.86223736      19.95723433        4       0.00000000      -0.00399177       0.01570964       0.01733700
Pt       8.42164142       4.86223724      19.95723439        4       0.00000000       0.00204569       0.01215518       0.01702387
Pt       1.40360727       0.81037261      22.29206790        3       0.00000000       0.00383137      -0.01271782       0.05287286
Pt       4.21082126       0.81037249      22.29206793        3       0.00000000      -0.00304564       0.01036961      -0.07279906
Pt       7.01803475       0.81037258      22.29206787        3       0.00000000       0.01365682       0.01161870      -0.07798482
Pt       2.80721449       3.24149123      22.29206778        3       0.00000000       0.01204748       0.03259892      -0.04760712
Pt       5.61442761       3.24149123      22.29206789        3       0.00000000       0.00577735       0.02790035      -0.03711710
Pt       8.42164155       3.24149130      22.29206812        3       0.00000000      -0.00933682       0.03068073      -0.04710265
Pt       4.21082090       5.67260997      22.29206743        3       0.00000000       0.00239819       0.04481551      -0.08856970
Pt       7.01803489       5.67261038      22.29206778        3       0.00000000       0.00483469       0.04134486      -0.09397644
Pt       9.82524818       5.67261058      22.29206804        3       0.00000000       0.00238523       0.02426595      -0.07515842
Pt      -0.00000057       1.62074568      24.58417368        2       0.00000000      -0.27734461       0.10511813       0.50367182
Pt       2.80721445       1.62074549      24.58417387        2       0.00000000       0.26832587       0.09032365       0.49461973
Pt       5.61442780       1.62074538      24.58417368        2       0.00000000      -0.00585789      -0.03650473      -0.02551096
Pt       1.40360635       4.05186441      24.58417386        2       0.00000000      -0.01170417      -0.02443192      -0.02327692
Pt       4.21082088       4.05186391      24.58417389        2       0.00000000      -0.06139709      -0.14374678      -0.03321024
Pt       7.01803505       4.05186405      24.58417404        2       0.00000000       0.03891133      -0.13721605      -0.03147905
Pt       2.80721273       6.48298348      24.58417381        2       0.00000000       0.08766917      -0.08341720      -0.11987752
Pt       5.61442805       6.48298330      24.58417394        2       0.00000000      -0.01705540       0.07401655      -0.23357829
Pt       8.42164222       6.48298341      24.58417373        2       0.00000000      -0.09642772      -0.08624063      -0.12832648
Pt      -0.00527315      -0.09881778      26.94114385        1       0.00000000       0.02264670      -0.02459370      -0.00052326
Pt       2.79192302      -0.10236142      26.93866666        1       0.00000000       0.01379629      -0.00104101       0.00508707
Pt       5.60674670      -0.16531946      26.88021075        1       0.00000000      -0.00098623      -0.00046336      -0.00699497
Pt       1.40050602       2.33680123      26.91091156        1       0.00000000      -0.00956441       0.02187477       0.00312011
Pt       4.16525967       2.28668225      26.94976591        1       0.00000000       0.00549356       0.00424064       0.01064895
Pt       7.05535068       2.28791343      26.94538321        1       0.00000000      -0.00039532       0.01454999       0.01477884
Pt       2.79897925       4.76472485      26.91609550        1       0.00000000       0.00914518      -0.00019058       0.00260676
Pt       5.60429016       4.85382115      26.84514961        1       0.00000000       0.00079318       0.01972323       0.00191389
Pt       8.41127140       4.76765047      26.91522506        1       0.00000000       0.01163173      -0.00603966      -0.00044181
O        5.62681623       2.49567102      28.58353152        0       0.50000000      -0.01387520       0.01883797      -0.01538728
H        5.62677259       1.63187627      29.05092454        0       0.50000000       0.00173173      -0.04688734       0.00258604
