38
Lattice="8.421641763931781 0.0 0.0 4.2108208819658905 7.293355709136913 0.0 0.0 0.0 46.87624170604845" Properties=species:S:1:pos:R:3:tags:I:1:initial_magmoms:R:1:forces:R:3 charge=0 spin=0 energy=-196.55130907589756 free_energy=-196.55130907589756 stress="0.009092516265809536 -0.0003975688887294382 -0.00020735505677293986 -0.0003975688887294382 0.00942719355225563 -8.163816528394818e-05 -0.00020735505677293986 -8.163816528394818e-05 -0.00032700804877094924" pbc="T T T"
Pt      -0.00000001       0.00000015      19.95723445        4       0.00000000       0.00500554      -0.01256908      -0.02259621
Pt       2.80721394      -0.00000009      19.95723448        4       0.00000000      -0.00573416      -0.00676123       0.01318762
Pt       5.61442781      -0.00000017      19.95723450        4       0.00000000       0.01493564       0.00822334       0.03338519
Pt       1.40360720       2.43111836      19.95723436        4       0.00000000      -0.00951504      -0.01173224       0.01740070
Pt       4.21082078       2.43111836      19.95723446        4       0.00000000       0.00049382      -0.00156733       0.01480780
Pt       7.01803484       2.43111844      19.95723431        4       0.00000000      -0.00402132       0.01162087      -0.02202751
Pt       2.80721414       4.86223727      19.95723413        4       0.00000000       0.00029612       0.00114672       0.01266589
Pt       5.61442797       4.86223736      19.95723433        4       0.00000000      -0.00286105      -0.00135248       0.00327525
Pt       8.42164142       4.86223724      19.95723439        4       0.00000000      -0.00937614      -0.00492838       0.01729533
Pt       1.40360727       0.81037261      22.29206790        3       0.00000000      -0.03371121      -0.02503290      -0.09042057
Pt       4.21082126       0.81037249      22.29206793        3       0.00000000      -0.02739096      -0.01000753      -0.04874255
Pt       7.01803475       0.81037258      22.29206787        3       0.00000000       0.01612025       0.00719402       0.05355313
Pt       2.80721449       3.24149123      22.29206778        3       0.00000000      -0.02087016      -0.01344266      -0.03570307
Pt       5.61442761       3.24149123      22.29206789        3       0.00000000      -0.00205998      -0.01043406      -0.07331707
Pt       8.42164155       3.24149130      22.29206812        3       0.00000000      -0.03123347      -0.02209927      -0.09517582
Pt       4.21082090       5.67260997      22.29206743        3       0.00000000      -0.00960899       0.00352988      -0.07734866
Pt       7.01803489       5.67261038      22.29206778        3       0.00000000      -0.01492254      -0.01437622      -0.07414749
Pt       9.82524818       5.67261058      22.29206804        3       0.00000000      -0.01393969      -0.02718605      -0.04586910
Pt      -0.00000057       1.62074568      24.58417368        2       0.00000000      -0.08660174      -0.04172290      -0.24804322
Pt       2.80721445       1.62074549      24.58417387        2       0.00000000       0.13403912       0.03920935      -0.03453116
Pt       5.61442780       1.62074538      24.58417368        2       0.00000000      -0.22575408       0.18946216       0.49646136
Pt       1.40360635       4.05186441      24.58417386        2       0.00000000       0.08522055       0.13013858      -0.03810869
Pt       4.21082088       4.05186391      24.58417389        2       0.00000000       0.01669874       0.02642440      -0.02413495
Pt       7.01803505       4.05186405      24.58417404        2       0.00000000       0.09613541      -0.02347967      -0.12639567
Pt       2.80721273       6.48298348      24.58417381        2       0.00000000       0.02090183      -0.28301683       0.50981188
Pt       5.61442805       6.48298330      24.58417394        2       0.00000000       0.00627169       0.13267985      -0.13986325
Pt       8.42164222       6.48298341      24.58417373        2       0.00000000       0.00596683       0.01691159      -0.02850440
Pt       0.05885014       0.05985980      26.93779851        1       0.00000000       0.00381225       0.00985194       0.00643465
Pt       2.86176937       0.05883255      26.91247482        1       0.00000000       0.02921764      -0.01858120       0.01291718
Pt       5.67024336       0.04463507      26.91069231        1       0.00000000       0.00631172       0.00636719      -0.00400720
Pt       1.38667738       2.44337735      26.83984283        1       0.00000000      -0.00173963      -0.02570118       0.02795410
Pt       4.33580145       2.46874754      26.94788590        1       0.00000000       0.00057943      -0.01134246      -0.00513718
Pt       7.08386118       2.48850442      26.93895462        1       0.00000000       0.01920196      -0.03448587       0.00278574
Pt       2.89054268       4.96933019      26.95074392        1       0.00000000      -0.00502077       0.01469638      -0.00552511
Pt       5.73373091       4.95212186      26.87941435        1       0.00000000       0.00999703      -0.01708248      -0.00675203
Pt       8.47812498       4.91445904      26.91276126        1       0.00000000       0.02387033       0.00352154       0.00824131
O        3.43675397       3.61900490      28.58130941        0       0.50000000       0.02297239       0.00546970       0.04174045
H        4.19074845       4.04510620      29.04750067        0       0.50000000      -0.01368723       0.01045489      -0.02556670
