38
Lattice="8.421641763931781 0.0 0.0 4.2108208819658905 7.293355709136913 0.0 0.0 0.0 46.87624170604845" Properties=species:S:1:pos:R:3:tags:I:1:initial_magmoms:R:1:forces:R:3 charge=0 spin=0 energy=-196.5513281493839 free_energy=-196.5513281493839 stress="0.00909283384680748 -0.00039751932490617037 -0.00020720603060908616 -0.00039751932490617037 0.009427212178707123 -8.151606016326696e-05 -0.00020720603060908616 -8.151606016326696e-05 -0.00032667798222973943" pbc="T T T"
Pt      -0.00000001       0.00000015      19.95723445        4       0.00000000       0.00499905      -0.01256566      -0.02259167
Pt       2.80721394      -0.00000009      19.95723448        4       0.00000000      -0.00574367      -0.00675795       0.01318841
Pt       5.61442781      -0.00000017      19.95723450        4       0.00000000       0.01493920       0.00822628       0.03338910
Pt       1.40360720       2.43111836      19.95723436        4       0.00000000      -0.00951665      -0.01172934       0.01740040
Pt       4.21082078       2.43111836      19.95723446        4       0.00000000       0.00048453      -0.00157000       0.01480865
Pt       7.01803484       2.43111844      19.95723431        4       0.00000000      -0.00402415       0.01162994      -0.02203122
Pt       2.80721414       4.86223727      19.95723413        4       0.00000000       0.00028708       0.00114730       0.01266892
Pt       5.61442797       4.86223736      19.95723433        4       0.00000000      -0.00286177      -0.00135340       0.00327832
Pt       8.42164142       4.86223724      19.95723439        4       0.00000000      -0.00938394      -0.00493617       0.01729270
Pt       1.40360727       0.81037261      22.29206790        3       0.00000000      -0.03372043      -0.02502263      -0.09039050
Pt       4.21082126       0.81037249      22.29206793        3       0.00000000      -0.02739358      -0.01000387      -0.04878290
Pt       7.01803475       0.81037258      22.29206787        3       0.00000000       0.01609037       0.00721793       0.05354567
Pt       2.80721449       3.24149123      22.29206778        3       0.00000000      -0.02088535      -0.01343585      -0.03569040
Pt       5.61442761       3.24149123      22.29206789        3       0.00000000      -0.00207417      -0.01043887      -0.07333733
Pt       8.42164155       3.24149130      22.29206812        3       0.00000000      -0.03125647      -0.02208795      -0.09515621
Pt       4.21082090       5.67260997      22.29206743        3       0.00000000      -0.00963366       0.00353276      -0.07734994
Pt       7.01803489       5.67261038      22.29206778        3       0.00000000      -0.01493326      -0.01437461      -0.07414657
Pt       9.82524818       5.67261058      22.29206804        3       0.00000000      -0.01395569      -0.02717000      -0.04591049
Pt      -0.00000057       1.62074568      24.58417368        2       0.00000000      -0.08648249      -0.04168910      -0.24829596
Pt       2.80721445       1.62074549      24.58417387        2       0.00000000       0.13387749       0.03920694      -0.03429789
Pt       5.61442780       1.62074538      24.58417368        2       0.00000000      -0.22565769       0.18944857       0.49633816
Pt       1.40360635       4.05186441      24.58417386        2       0.00000000       0.08529729       0.12993902      -0.03778239
Pt       4.21082088       4.05186391      24.58417389        2       0.00000000       0.01668549       0.02648981      -0.02413808
Pt       7.01803505       4.05186405      24.58417404        2       0.00000000       0.09622510      -0.02345583      -0.12634729
Pt       2.80721273       6.48298348      24.58417381        2       0.00000000       0.02098356      -0.28311116       0.51001197
Pt       5.61442805       6.48298330      24.58417394        2       0.00000000       0.00634520       0.13265523      -0.13977782
Pt       8.42164222       6.48298341      24.58417373        2       0.00000000       0.00597302       0.01686626      -0.02846959
Pt       0.05897898       0.05995561      26.93779323        1       0.00000000       0.00335961       0.00888423       0.00655456
Pt       2.86186403       0.05878898      26.91252729        1       0.00000000       0.02911528      -0.01848640       0.01273563
Pt       5.67028793       0.04467255      26.91068642        1       0.00000000       0.00646312       0.00612646      -0.00400764
Pt       1.38659833       2.44328319      26.83995995        1       0.00000000      -0.00067334      -0.02504943       0.02750316
Pt       4.33582256       2.46872895      26.94782061        1       0.00000000       0.00076593      -0.01120916      -0.00497991
Pt       7.08401871       2.48847310      26.93894186        1       0.00000000       0.01824503      -0.03422724       0.00292991
Pt       2.89060131       4.96933006      26.95079167        1       0.00000000      -0.00489559       0.01511639      -0.00589101
Pt       5.73377945       4.95208979      26.87940591        1       0.00000000       0.01010790      -0.01699457      -0.00681552
Pt       8.47825421       4.91446847      26.91278846        1       0.00000000       0.02356343       0.00348901       0.00816230
O        3.43676849       3.61910470      28.58126243        0       0.50000000       0.02390193       0.00545186       0.04241576
H        4.19088618       4.04505921      29.04744004        0       0.50000000      -0.01461790       0.01024104      -0.02603320
