38
Lattice="8.421641763931781 0.0 0.0 4.2108208819658905 7.293355709136913 0.0 0.0 0.0 46.87624170604845" Properties=species:S:1:pos:R:3:tags:I:1:initial_magmoms:R:1:forces:R:3 charge=0 spin=0 energy=-196.54990335995518 free_energy=-196.54990335995518 stress="0.009120313450694084 -0.00040913367411121726 -0.0002041057014139369 -0.00040913367411121726 0.009479229338467121 -7.698850822634995e-05 -0.0002041057014139369 -7.698850822634995e-05 -0.0002867085859179497" pbc="T T T"
Pt      -0.00000001       0.00000015      19.95723445        4       0.00000000       0.00427923      -0.01101471      -0.02058419
Pt       2.80721394      -0.00000009      19.95723448        4       0.00000000      -0.00446304      -0.00520096       0.01395058
Pt       5.61442781      -0.00000017      19.95723450        4       0.00000000       0.01479146       0.00885479       0.03264840
Pt       1.40360720       2.43111836      19.95723436        4       0.00000000      -0.00848334      -0.01013911       0.01760862
Pt       4.21082078       2.43111836      19.95723446        4       0.00000000       0.00095909      -0.00070793       0.01462623
Pt       7.01803484       2.43111844      19.95723431        4       0.00000000      -0.00359890       0.01224768      -0.02197471
Pt       2.80721414       4.86223727      19.95723413        4       0.00000000       0.00083893       0.00186572       0.01216805
Pt       5.61442797       4.86223736      19.95723433        4       0.00000000      -0.00177139      -0.00057990       0.00333129
Pt       8.42164142       4.86223724      19.95723439        4       0.00000000      -0.00811932      -0.00388812       0.01787597
Pt       1.40360727       0.81037261      22.29206790        3       0.00000000      -0.03131997      -0.02053815      -0.08722194
Pt       4.21082126       0.81037249      22.29206793        3       0.00000000      -0.02274750      -0.00562320      -0.04801655
Pt       7.01803475       0.81037258      22.29206787        3       0.00000000       0.01690148       0.01144857       0.05013202
Pt       2.80721449       3.24149123      22.29206778        3       0.00000000      -0.01789368      -0.00931923      -0.03264038
Pt       5.61442761       3.24149123      22.29206789        3       0.00000000       0.00212350      -0.00634923      -0.07261058
Pt       8.42164155       3.24149130      22.29206812        3       0.00000000      -0.02852757      -0.01966228      -0.09229022
Pt       4.21082090       5.67260997      22.29206743        3       0.00000000      -0.00586614       0.00560129      -0.07788620
Pt       7.01803489       5.67261038      22.29206778        3       0.00000000      -0.01120945      -0.01026326      -0.07376741
Pt       9.82524818       5.67261058      22.29206804        3       0.00000000      -0.00965441      -0.02206442      -0.04744406
Pt      -0.00000057       1.62074568      24.58417368        2       0.00000000      -0.08490787      -0.04402690      -0.24124585
Pt       2.80721445       1.62074549      24.58417387        2       0.00000000       0.11746761       0.02986958      -0.01181930
Pt       5.61442780       1.62074538      24.58417368        2       0.00000000      -0.23169893       0.16820225       0.47374386
Pt       1.40360635       4.05186441      24.58417386        2       0.00000000       0.07460076       0.10258114      -0.00915470
Pt       4.21082088       4.05186391      24.58417389        2       0.00000000       0.00420550       0.01401727      -0.02643900
Pt       7.01803505       4.05186405      24.58417404        2       0.00000000       0.10129119      -0.03860588      -0.13327873
Pt       2.80721273       6.48298348      24.58417381        2       0.00000000       0.00100167      -0.28537393       0.50712901
Pt       5.61442805       6.48298330      24.58417394        2       0.00000000       0.00218209       0.12802711      -0.14080232
Pt       8.42164222       6.48298341      24.58417373        2       0.00000000      -0.00741971       0.00082562      -0.01895786
Pt       0.04587688       0.04565469      26.93596398        1       0.00000000      -0.00515581       0.00410072       0.00554924
Pt       2.84806465       0.04511096      26.91534636        1       0.00000000       0.02190858      -0.03175643       0.00088130
Pt       5.64915492       0.03485311      26.90969771        1       0.00000000       0.03061148      -0.01171749      -0.00230860
Pt       1.37450101       2.42568371      26.84929369        1       0.00000000       0.00564791       0.00301073      -0.00360431
Pt       4.31133300       2.45519897      26.95020331        1       0.00000000       0.01644387       0.02069723       0.01173097
Pt       7.06651859       2.46902470      26.93687511        1       0.00000000       0.02788555      -0.01103512       0.00385311
Pt       2.87224501       4.95452363      26.95136723        1       0.00000000       0.01404457       0.01849479      -0.00159448
Pt       5.71847235       4.93384225      26.87182073        1       0.00000000       0.03242018       0.00921528       0.00250657
Pt       8.46899671       4.89536645      26.91417421        1       0.00000000      -0.00431483       0.01914923      -0.00311886
O        3.44055617       3.63653141      28.59608282        0       0.50000000       0.00005367      -0.02047198      -0.03556199
H        4.21561505       4.07614878      29.01172242        0       0.50000000      -0.00250657       0.01012944       0.03458731
