38
Lattice="8.421641763931781 0.0 0.0 4.2108208819658905 7.293355709136913 0.0 0.0 0.0 46.87624170604845" Properties=species:S:1:pos:R:3:tags:I:1:initial_magmoms:R:1:forces:R:3 charge=0 spin=0 energy=-196.54989763790928 free_energy=-196.54989763790928 stress="0.009120263159275055 -0.0004091292212251574 -0.00020421226508915424 -0.0004091292212251574 0.009479392319917679 -7.702786388108507e-05 -0.00020421226508915424 -7.702786388108507e-05 -0.00028669473249465227" pbc="T T T"
Pt      -0.00000001       0.00000015      19.95723445        4       0.00000000       0.00427962      -0.01101465      -0.02058429
Pt       2.80721394      -0.00000009      19.95723448        4       0.00000000      -0.00446302      -0.00520107       0.01395053
Pt       5.61442781      -0.00000017      19.95723450        4       0.00000000       0.01478868       0.00885371       0.03264813
Pt       1.40360720       2.43111836      19.95723436        4       0.00000000      -0.00848281      -0.01014054       0.01760985
Pt       4.21082078       2.43111836      19.95723446        4       0.00000000       0.00096232      -0.00070929       0.01462471
Pt       7.01803484       2.43111844      19.95723431        4       0.00000000      -0.00359839       0.01224857      -0.02197373
Pt       2.80721414       4.86223727      19.95723413        4       0.00000000       0.00083911       0.00186648       0.01216672
Pt       5.61442797       4.86223736      19.95723433        4       0.00000000      -0.00177175      -0.00058068       0.00333142
Pt       8.42164142       4.86223724      19.95723439        4       0.00000000      -0.00811482      -0.00388699       0.01787777
Pt       1.40360727       0.81037261      22.29206790        3       0.00000000      -0.03131652      -0.02053821      -0.08721752
Pt       4.21082126       0.81037249      22.29206793        3       0.00000000      -0.02274779      -0.00562541      -0.04801552
Pt       7.01803475       0.81037258      22.29206787        3       0.00000000       0.01689887       0.01145148       0.05013490
Pt       2.80721449       3.24149123      22.29206778        3       0.00000000      -0.01788642      -0.00932608      -0.03265427
Pt       5.61442761       3.24149123      22.29206789        3       0.00000000       0.00212667      -0.00634643      -0.07260519
Pt       8.42164155       3.24149130      22.29206812        3       0.00000000      -0.02851880      -0.01966373      -0.09228593
Pt       4.21082090       5.67260997      22.29206743        3       0.00000000      -0.00586137       0.00559981      -0.07788128
Pt       7.01803489       5.67261038      22.29206778        3       0.00000000      -0.01120631      -0.01026292      -0.07378072
Pt       9.82524818       5.67261058      22.29206804        3       0.00000000      -0.00964848      -0.02206607      -0.04742850
Pt      -0.00000057       1.62074568      24.58417368        2       0.00000000      -0.08489195      -0.04403162      -0.24115099
Pt       2.80721445       1.62074549      24.58417387        2       0.00000000       0.11743553       0.02987015      -0.01187376
Pt       5.61442780       1.62074538      24.58417368        2       0.00000000      -0.23165460       0.16818191       0.47371307
Pt       1.40360635       4.05186441      24.58417386        2       0.00000000       0.07452661       0.10258638      -0.00917309
Pt       4.21082088       4.05186391      24.58417389        2       0.00000000       0.00424176       0.01404423      -0.02646197
Pt       7.01803505       4.05186405      24.58417404        2       0.00000000       0.10125417      -0.03862406      -0.13320574
Pt       2.80721273       6.48298348      24.58417381        2       0.00000000       0.00097762      -0.28536975       0.50705600
Pt       5.61442805       6.48298330      24.58417394        2       0.00000000       0.00214883       0.12804678      -0.14076187
Pt       8.42164222       6.48298341      24.58417373        2       0.00000000      -0.00740892       0.00084640      -0.01897998
Pt       0.04581224       0.04562671      26.93597317        1       0.00000000      -0.00491167       0.00422402       0.00548671
Pt       2.84806674       0.04513506      26.91533313        1       0.00000000       0.02178703      -0.03181777       0.00093142
Pt       5.64917103       0.03484520      26.90970545        1       0.00000000       0.03051059      -0.01170577      -0.00230837
Pt       1.37451520       2.42569855      26.84929281        1       0.00000000       0.00544581       0.00289460      -0.00362836
Pt       4.31134756       2.45519644      26.95017164        1       0.00000000       0.01632113       0.02074888       0.01188688
Pt       7.06651936       2.46901275      26.93689408        1       0.00000000       0.02790712      -0.01094976       0.00377616
Pt       2.87218634       4.95444970      26.95134032        1       0.00000000       0.01420009       0.01860097      -0.00145455
Pt       5.71846123       4.93387093      26.87183998        1       0.00000000       0.03238066       0.00911647       0.00241364
Pt       8.46894002       4.89539857      26.91417550        1       0.00000000      -0.00418729       0.01900527      -0.00311106
O        3.44055390       3.63653626      28.59611326        0       0.50000000      -0.00012428      -0.02068624      -0.03603065
H        4.21567366       4.07616404      29.01160870        0       0.50000000      -0.00223705       0.01036103       0.03495928
