38
Lattice="8.421641763931781 0.0 0.0 4.2108208819658905 7.293355709136913 0.0 0.0 0.0 46.87624170604845" Properties=species:S:1:pos:R:3:tags:I:1:initial_magmoms:R:1:forces:R:3 charge=0 spin=0 energy=-196.54989763790928 free_energy=-196.54989763790928 stress="0.009120241738855839 -0.00040914604323916137 -0.0002041949483100325 -0.00040914604323916137 0.009479338303208351 -7.702345465077087e-05 -0.0002041949483100325 -7.702345465077087e-05 -0.0002867002331186086" pbc="T T T"
Pt      -0.00000001       0.00000015      19.95723445        4       0.00000000       0.00427969      -0.01101455      -0.02058425
Pt       2.80721394      -0.00000009      19.95723448        4       0.00000000      -0.00446300      -0.00520085       0.01395051
Pt       5.61442781      -0.00000017      19.95723450        4       0.00000000       0.01478966       0.00885426       0.03264819
Pt       1.40360720       2.43111836      19.95723436        4       0.00000000      -0.00848266      -0.01014014       0.01760945
Pt       4.21082078       2.43111836      19.95723446        4       0.00000000       0.00096167      -0.00070884       0.01462519
Pt       7.01803484       2.43111844      19.95723431        4       0.00000000      -0.00359852       0.01224845      -0.02197394
Pt       2.80721414       4.86223727      19.95723413        4       0.00000000       0.00083917       0.00186663       0.01216714
Pt       5.61442797       4.86223736      19.95723433        4       0.00000000      -0.00177147      -0.00058046       0.00333142
Pt       8.42164142       4.86223724      19.95723439        4       0.00000000      -0.00811598      -0.00388725       0.01787737
Pt       1.40360727       0.81037261      22.29206790        3       0.00000000      -0.03131661      -0.02053805      -0.08721945
Pt       4.21082126       0.81037249      22.29206793        3       0.00000000      -0.02274744      -0.00562482      -0.04801630
Pt       7.01803475       0.81037258      22.29206787        3       0.00000000       0.01690015       0.01145062       0.05013520
Pt       2.80721449       3.24149123      22.29206778        3       0.00000000      -0.01788826      -0.00932459      -0.03265126
Pt       5.61442761       3.24149123      22.29206789        3       0.00000000       0.00212644      -0.00634708      -0.07260613
Pt       8.42164155       3.24149130      22.29206812        3       0.00000000      -0.02852057      -0.01966313      -0.09228697
Pt       4.21082090       5.67260997      22.29206743        3       0.00000000      -0.00586238       0.00560051      -0.07788182
Pt       7.01803489       5.67261038      22.29206778        3       0.00000000      -0.01120644      -0.01026279      -0.07377682
Pt       9.82524818       5.67261058      22.29206804        3       0.00000000      -0.00964943      -0.02206534      -0.04743341
Pt      -0.00000057       1.62074568      24.58417368        2       0.00000000      -0.08490080      -0.04403022      -0.24118474
Pt       2.80721445       1.62074549      24.58417387        2       0.00000000       0.11744321       0.02986998      -0.01185418
Pt       5.61442780       1.62074538      24.58417368        2       0.00000000      -0.23166700       0.16818923       0.47372353
Pt       1.40360635       4.05186441      24.58417386        2       0.00000000       0.07454579       0.10258365      -0.00916415
Pt       4.21082088       4.05186391      24.58417389        2       0.00000000       0.00423140       0.01403726      -0.02645630
Pt       7.01803505       4.05186405      24.58417404        2       0.00000000       0.10125998      -0.03861956      -0.13322133
Pt       2.80721273       6.48298348      24.58417381        2       0.00000000       0.00098413      -0.28537339       0.50707525
Pt       5.61442805       6.48298330      24.58417394        2       0.00000000       0.00215725       0.12803717      -0.14077407
Pt       8.42164222       6.48298341      24.58417373        2       0.00000000      -0.00741384       0.00083976      -0.01897481
Pt       0.04582943       0.04563495      26.93596980        1       0.00000000      -0.00498946       0.00417615       0.00551052
Pt       2.84806320       0.04512613      26.91533668        1       0.00000000       0.02182872      -0.03179048       0.00091628
Pt       5.64916485       0.03484563      26.90970312        1       0.00000000       0.03053637      -0.01170529      -0.00230415
Pt       1.37450659       2.42569189      26.84929314        1       0.00000000       0.00552032       0.00293972      -0.00362145
Pt       4.31134257       2.45519751      26.95018034        1       0.00000000       0.01635733       0.02072545       0.01184392
Pt       7.06651877       2.46901518      26.93688897        1       0.00000000       0.02788726      -0.01097234       0.00379344
Pt       2.87220117       4.95446852      26.95134729        1       0.00000000       0.01415385       0.01857600      -0.00149739
Pt       5.71846157       4.93386206      26.87183570        1       0.00000000       0.03239277       0.00913999       0.00243333
Pt       8.46895243       4.89538890      26.91417488        1       0.00000000      -0.00421470       0.01904402      -0.00311422
O        3.44055055       3.63653128      28.59610320        0       0.50000000      -0.00016134      -0.02066671      -0.03593758
H        4.21564639       4.07615817      29.01164457        0       0.50000000      -0.00222535       0.01033703       0.03489380
