38
Lattice="8.421641763931781 0.0 0.0 4.2108208819658905 7.293355709136913 0.0 0.0 0.0 46.87624170604845" Properties=species:S:1:pos:R:3:tags:I:1:initial_magmoms:R:1:forces:R:3 charge=0 spin=0 energy=-196.5526022582706 free_energy=-196.5526022582706 stress="0.009687189944088459 1.353751758870203e-05 1.4058653050597059e-06 1.353751758870203e-05 0.008853485807776451 0.00023697996221017092 1.4058653050597059e-06 0.00023697996221017092 -0.0003121635818388313" pbc="T T T"
Pt      -0.00000001       0.00000015      19.95723445        4       0.00000000      -0.01266080       0.00249854      -0.02250265
Pt       2.80721394      -0.00000009      19.95723448        4       0.00000000       0.01315829      -0.00144639      -0.02275187
Pt       5.61442781      -0.00000017      19.95723450        4       0.00000000       0.00140456       0.00451984       0.00350684
Pt       1.40360720       2.43111836      19.95723436        4       0.00000000       0.00092042      -0.01557514       0.03380506
Pt       4.21082078       2.43111836      19.95723446        4       0.00000000      -0.00037529       0.00188486       0.01529398
Pt       7.01803484       2.43111844      19.95723431        4       0.00000000       0.00241557       0.00070231       0.01231869
Pt       2.80721414       4.86223727      19.95723413        4       0.00000000      -0.00097561       0.00973129       0.01271937
Pt       5.61442797       4.86223736      19.95723433        4       0.00000000      -0.00404248       0.01562877       0.01731255
Pt       8.42164142       4.86223724      19.95723439        4       0.00000000       0.00209122       0.01196740       0.01705127
Pt       1.40360727       0.81037261      22.29206790        3       0.00000000       0.00350901      -0.01340665       0.05347351
Pt       4.21082126       0.81037249      22.29206793        3       0.00000000      -0.00294938       0.00990760      -0.07271397
Pt       7.01803475       0.81037258      22.29206787        3       0.00000000       0.01344447       0.01108996      -0.07824560
Pt       2.80721449       3.24149123      22.29206778        3       0.00000000       0.01213688       0.03217030      -0.04774568
Pt       5.61442761       3.24149123      22.29206789        3       0.00000000       0.00584986       0.02751540      -0.03755358
Pt       8.42164155       3.24149130      22.29206812        3       0.00000000      -0.00935491       0.03026360      -0.04690197
Pt       4.21082090       5.67260997      22.29206743        3       0.00000000       0.00242366       0.04443773      -0.08835047
Pt       7.01803489       5.67261038      22.29206778        3       0.00000000       0.00491067       0.04101840      -0.09406364
Pt       9.82524818       5.67261058      22.29206804        3       0.00000000       0.00243990       0.02375907      -0.07558513
Pt      -0.00000057       1.62074568      24.58417368        2       0.00000000      -0.27462620       0.10621674       0.50067103
Pt       2.80721445       1.62074549      24.58417387        2       0.00000000       0.26769495       0.09137395       0.49203062
Pt       5.61442780       1.62074538      24.58417368        2       0.00000000      -0.00629184      -0.03683770      -0.02843665
Pt       1.40360635       4.05186441      24.58417386        2       0.00000000      -0.01212466      -0.02310102      -0.02441273
Pt       4.21082088       4.05186391      24.58417389        2       0.00000000      -0.06336558      -0.14235424      -0.03530986
Pt       7.01803505       4.05186405      24.58417404        2       0.00000000       0.04022506      -0.13676222      -0.03737448
Pt       2.80721273       6.48298348      24.58417381        2       0.00000000       0.08905606      -0.08223218      -0.12098119
Pt       5.61442805       6.48298330      24.58417394        2       0.00000000      -0.01801595       0.07780983      -0.23814990
Pt       8.42164222       6.48298341      24.58417373        2       0.00000000      -0.09743011      -0.08462141      -0.12788136
Pt      -0.00507263      -0.09616491      26.94138951        1       0.00000000       0.02051952      -0.02864254      -0.00118047
Pt       2.79056449      -0.10010914      26.93876818        1       0.00000000       0.02177023      -0.00026544       0.00492543
Pt       5.60695358      -0.16403313      26.87970269        1       0.00000000      -0.00433030       0.00202508      -0.00603844
Pt       1.40144108       2.33898697      26.91062568        1       0.00000000      -0.01449252       0.02169403       0.00438154
Pt       4.16527732       2.28920218      26.94855341        1       0.00000000       0.00342096      -0.00238729       0.01114316
Pt       7.05565120       2.29020201      26.94375300        1       0.00000000      -0.00075094       0.01114880       0.01761890
Pt       2.79817169       4.76717069      26.91589967        1       0.00000000       0.01257152      -0.00171614       0.00259900
Pt       5.60485254       4.85571134      26.84335033        1       0.00000000      -0.00478386       0.02067388       0.01038495
Pt       8.41022806       4.76929043      26.91492624        1       0.00000000       0.01670265      -0.00337490       0.00079622
O        5.62528102       2.49726663      28.58070822        0       0.50000000      -0.00969977       0.02209413      -0.00550766
H        5.62662688       1.63410561      29.04925289        0       0.50000000      -0.00039515      -0.04740804       0.00165521
