38
Lattice="8.421641763931781 0.0 0.0 4.2108208819658905 7.293355709136913 0.0 0.0 0.0 46.87624170604845" Properties=species:S:1:pos:R:3:tags:I:1:initial_magmoms:R:1:forces:R:3 charge=0 spin=0 energy=-196.55128618771397 free_energy=-196.55128618771397 stress="0.009091820567846298 -0.0003976459556724876 -0.00020741563639603555 -0.0003976459556724876 0.009426908567547798 -8.176184928743169e-05 -0.00020741563639603555 -8.176184928743169e-05 -0.0003276064817328006" pbc="T T T"
Pt      -0.00000001       0.00000015      19.95723445        4       0.00000000       0.00501284      -0.01257263      -0.02260392
Pt       2.80721394      -0.00000009      19.95723448        4       0.00000000      -0.00572259      -0.00676723       0.01318487
Pt       5.61442781      -0.00000017      19.95723450        4       0.00000000       0.01493234       0.00822012       0.03338108
Pt       1.40360720       2.43111836      19.95723436        4       0.00000000      -0.00951716      -0.01173831       0.01739940
Pt       4.21082078       2.43111836      19.95723446        4       0.00000000       0.00050666      -0.00156208       0.01480766
Pt       7.01803484       2.43111844      19.95723431        4       0.00000000      -0.00401769       0.01160554      -0.02202235
Pt       2.80721414       4.86223727      19.95723413        4       0.00000000       0.00030943       0.00114595       0.01266146
Pt       5.61442797       4.86223736      19.95723433        4       0.00000000      -0.00286062      -0.00135050       0.00327022
Pt       8.42164142       4.86223724      19.95723439        4       0.00000000      -0.00936900      -0.00492012       0.01729739
Pt       1.40360727       0.81037261      22.29206790        3       0.00000000      -0.03369804      -0.02504739      -0.09045546
Pt       4.21082126       0.81037249      22.29206793        3       0.00000000      -0.02739099      -0.01001239      -0.04869685
Pt       7.01803475       0.81037258      22.29206787        3       0.00000000       0.01616124       0.00715003       0.05359387
Pt       2.80721449       3.24149123      22.29206778        3       0.00000000      -0.02085137      -0.01344957      -0.03572783
Pt       5.61442761       3.24149123      22.29206789        3       0.00000000      -0.00204860      -0.01042650      -0.07328375
Pt       8.42164155       3.24149130      22.29206812        3       0.00000000      -0.03120598      -0.02211372      -0.09519133
Pt       4.21082090       5.67260997      22.29206743        3       0.00000000      -0.00957939       0.00352234      -0.07734644
Pt       7.01803489       5.67261038      22.29206778        3       0.00000000      -0.01491040      -0.01437712      -0.07414266
Pt       9.82524818       5.67261058      22.29206804        3       0.00000000      -0.01392347      -0.02721163      -0.04583143
Pt      -0.00000057       1.62074568      24.58417368        2       0.00000000      -0.08679692      -0.04177652      -0.24787840
Pt       2.80721445       1.62074549      24.58417387        2       0.00000000       0.13429709       0.03922928      -0.03486424
Pt       5.61442780       1.62074538      24.58417368        2       0.00000000      -0.22586069       0.18945062       0.49663311
Pt       1.40360635       4.05186441      24.58417386        2       0.00000000       0.08515788       0.13041781      -0.03862618
Pt       4.21082088       4.05186391      24.58417389        2       0.00000000       0.01673504       0.02630810      -0.02409231
Pt       7.01803505       4.05186405      24.58417404        2       0.00000000       0.09601960      -0.02353419      -0.12662289
Pt       2.80721273       6.48298348      24.58417381        2       0.00000000       0.02079625      -0.28280008       0.50948131
Pt       5.61442805       6.48298330      24.58417394        2       0.00000000       0.00615852       0.13270812      -0.14011621
Pt       8.42164222       6.48298341      24.58417373        2       0.00000000       0.00597764       0.01697915      -0.02850644
Pt       0.05873790       0.05977541      26.93779780        1       0.00000000       0.00411848       0.01087280       0.00637623
Pt       2.86160298       0.05887671      26.91239798        1       0.00000000       0.02972858      -0.01857557       0.01321828
Pt       5.67019445       0.04458665      26.91071410        1       0.00000000       0.00607472       0.00670940      -0.00409473
Pt       1.38677203       2.44350197      26.83967362        1       0.00000000      -0.00281019      -0.02641083       0.02871660
Pt       4.33579733       2.46873843      26.94796787        1       0.00000000       0.00027923      -0.01118479      -0.00521553
Pt       7.08369240       2.48856619      26.93896497        1       0.00000000       0.02017723      -0.03496607       0.00268727
Pt       2.89048446       4.96939714      26.95063735        1       0.00000000      -0.00503771       0.01373423      -0.00473726
Pt       5.73372266       4.95217532      26.87941378        1       0.00000000       0.00949503      -0.01733611      -0.00657151
Pt       8.47794731       4.91440514      26.91271450        1       0.00000000       0.02451075       0.00384878       0.00841100
O        3.43680378       3.61888023      28.58137187        0       0.50000000       0.02176595       0.00571459       0.04069771
H        4.19059922       4.04522700      29.04760393        0       0.50000000      -0.01261351       0.01051657      -0.02518990
