38
Lattice="8.421641763931781 0.0 0.0 4.2108208819658905 7.293355709136913 0.0 0.0 0.0 46.87624170604845" Properties=species:S:1:pos:R:3:tags:I:1:initial_magmoms:R:1:forces:R:3 charge=0 spin=0 energy=-196.55248400265538 free_energy=-196.55248400265538 stress="0.009082496166229248 -0.0003668539284262806 -0.00020253585535101593 -0.0003668539284262806 0.009467218071222305 -0.00011702783376676962 -0.00020253585535101593 -0.00011702783376676962 -0.00030551565578207374" pbc="T T T"
Pt      -0.00000001       0.00000015      19.95723445        4       0.00000000       0.00434965      -0.01214755      -0.02248552
Pt       2.80721394      -0.00000009      19.95723448        4       0.00000000      -0.00782867      -0.00556885       0.01266137
Pt       5.61442781      -0.00000017      19.95723450        4       0.00000000       0.01323761       0.00861150       0.03376094
Pt       1.40360720       2.43111836      19.95723436        4       0.00000000      -0.01130854      -0.01121916       0.01731477
Pt       4.21082078       2.43111836      19.95723446        4       0.00000000      -0.00134793      -0.00110351       0.01536357
Pt       7.01803484       2.43111844      19.95723431        4       0.00000000      -0.00521048       0.01191215      -0.02254960
Pt       2.80721414       4.86223727      19.95723413        4       0.00000000      -0.00168203       0.00181534       0.01253822
Pt       5.61442797       4.86223736      19.95723433        4       0.00000000      -0.00458279      -0.00099295       0.00353862
Pt       8.42164142       4.86223724      19.95723439        4       0.00000000      -0.01127596      -0.00414148       0.01708651
Pt       1.40360727       0.81037261      22.29206790        3       0.00000000      -0.03950148      -0.01983771      -0.08883291
Pt       4.21082126       0.81037249      22.29206793        3       0.00000000      -0.03331607      -0.00536630      -0.04783066
Pt       7.01803475       0.81037258      22.29206787        3       0.00000000       0.01107175       0.00939614       0.05258764
Pt       2.80721449       3.24149123      22.29206778        3       0.00000000      -0.02635792      -0.00821294      -0.03651024
Pt       5.61442761       3.24149123      22.29206789        3       0.00000000      -0.00670615      -0.00765858      -0.07261410
Pt       8.42164155       3.24149130      22.29206812        3       0.00000000      -0.03757817      -0.01649973      -0.09497235
Pt       4.21082090       5.67260997      22.29206743        3       0.00000000      -0.01567495       0.00626931      -0.07817331
Pt       7.01803489       5.67261038      22.29206778        3       0.00000000      -0.02153244      -0.00969318      -0.07571746
Pt       9.82524818       5.67261058      22.29206804        3       0.00000000      -0.02118860      -0.02281208      -0.04688774
Pt      -0.00000057       1.62074568      24.58417368        2       0.00000000      -0.05764931      -0.05496398      -0.24166577
Pt       2.80721445       1.62074549      24.58417387        2       0.00000000       0.15251289       0.01773262      -0.02937281
Pt       5.61442780       1.62074538      24.58417368        2       0.00000000      -0.21853095       0.18738677       0.49323162
Pt       1.40360635       4.05186441      24.58417386        2       0.00000000       0.10020809       0.10178624      -0.03517587
Pt       4.21082088       4.05186391      24.58417389        2       0.00000000       0.03306197       0.01073350      -0.01961615
Pt       7.01803505       4.05186405      24.58417404        2       0.00000000       0.11791332      -0.04026669      -0.12654613
Pt       2.80721273       6.48298348      24.58417381        2       0.00000000       0.04445676      -0.29202312       0.49862412
Pt       5.61442805       6.48298330      24.58417394        2       0.00000000       0.02675327       0.11531659      -0.11910110
Pt       8.42164222       6.48298341      24.58417373        2       0.00000000       0.02530175       0.00047524      -0.02511567
Pt       0.08426637       0.04332131      26.94055030        1       0.00000000       0.01936168       0.03261326       0.00280587
Pt       2.89267372       0.03812607      26.91575858        1       0.00000000      -0.00731884       0.01387835       0.00208763
Pt       5.69458859       0.04453573      26.91003244        1       0.00000000      -0.01748793      -0.02726608       0.00688204
Pt       1.41095480       2.42586492      26.84429827        1       0.00000000      -0.00568574      -0.01671253       0.00458729
Pt       4.35294142       2.45964054      26.95158359        1       0.00000000       0.01283616       0.01271003      -0.00623510
Pt       7.11129204       2.46587721      26.93741139        1       0.00000000      -0.01642260       0.02257865       0.01002591
Pt       2.90924077       4.96795479      26.94587079        1       0.00000000      -0.01261154      -0.02158354       0.00694443
Pt       5.75832513       4.93656518      26.88098773        1       0.00000000       0.00101709      -0.00457542      -0.01355289
Pt       8.50674038       4.89759947      26.91430318        1       0.00000000      -0.00685292       0.01891749       0.00249160
O        3.44508568       3.61889397      28.57904583        0       0.50000000       0.02201145       0.01852257       0.03051794
H        4.19147633       4.05574000      29.04719695        0       0.50000000       0.00355865      -0.00801034      -0.02009505
