38
Lattice="8.421641763931781 0.0 0.0 4.2108208819658905 7.293355709136913 0.0 0.0 0.0 46.87624170604845" Properties=species:S:1:pos:R:3:tags:I:1:initial_magmoms:R:1:forces:R:3 charge=0 spin=0 energy=-194.61144396359288 free_energy=-194.61144396359288 stress="0.009887183085083961 0.00015180920308921486 -5.512503321369877e-06 0.00015180920308921486 0.0097263278439641 -4.516833996603964e-06 -5.512503321369877e-06 -4.516833996603964e-06 -0.00012573620188049972" pbc="T T T"
Pt      -0.00000001       0.00000015      19.95723445        4       0.00000000      -0.00334528       0.00406523      -0.00273697
Pt       2.80721394      -0.00000009      19.95723448        4       0.00000000       0.00027116      -0.00091677       0.01413399
Pt       5.61442781      -0.00000017      19.95723450        4       0.00000000       0.00238638       0.00153512       0.00958723
Pt       1.40360720       2.43111836      19.95723436        4       0.00000000      -0.00365028      -0.00384935       0.01149776
Pt       4.21082078       2.43111836      19.95723446        4       0.00000000       0.00284010      -0.00099939       0.01179106
Pt       7.01803484       2.43111844      19.95723431        4       0.00000000       0.00233131      -0.00464795      -0.00283288
Pt       2.80721414       4.86223727      19.95723413        4       0.00000000      -0.00162767       0.00316187       0.01059145
Pt       5.61442797       4.86223736      19.95723433        4       0.00000000       0.00133896       0.00122940       0.01233514
Pt       8.42164142       4.86223724      19.95723439        4       0.00000000      -0.00114300       0.00043438       0.01303092
Pt       1.40360727       0.81037261      22.29206790        3       0.00000000       0.00102960      -0.00601812      -0.02138177
Pt       4.21082126       0.81037249      22.29206793        3       0.00000000      -0.00834170      -0.00044489      -0.04074314
Pt       7.01803475       0.81037258      22.29206787        3       0.00000000      -0.00168145      -0.00047830       0.02729106
Pt       2.80721449       3.24149123      22.29206778        3       0.00000000       0.00316533       0.00414007      -0.03434099
Pt       5.61442761       3.24149123      22.29206789        3       0.00000000      -0.00077024       0.00780485      -0.04154339
Pt       8.42164155       3.24149130      22.29206812        3       0.00000000      -0.00238501       0.00445385      -0.02404699
Pt       4.21082090       5.67260997      22.29206743        3       0.00000000       0.00547225      -0.00547996      -0.04185946
Pt       7.01803489       5.67261038      22.29206778        3       0.00000000       0.00123948       0.00238580      -0.04191602
Pt       9.82524818       5.67261058      22.29206804        3       0.00000000      -0.00396201      -0.00990099      -0.03961601
Pt      -0.00000057       1.62074568      24.58417368        2       0.00000000       0.02197285       0.01118137       0.02695632
Pt       2.80721445       1.62074549      24.58417387        2       0.00000000      -0.01090788      -0.00105120       0.01967402
Pt       5.61442780       1.62074538      24.58417368        2       0.00000000       0.02285103      -0.00321990      -0.02082260
Pt       1.40360635       4.05186441      24.58417386        2       0.00000000      -0.01101705      -0.01627111       0.02429447
Pt       4.21082088       4.05186391      24.58417389        2       0.00000000      -0.00107188      -0.00132618       0.04329021
Pt       7.01803505       4.05186405      24.58417404        2       0.00000000      -0.01704148       0.00617567       0.02524995
Pt       2.80721273       6.48298348      24.58417381        2       0.00000000      -0.00020412       0.01922926      -0.02340463
Pt       5.61442805       6.48298330      24.58417394        2       0.00000000      -0.00393625      -0.01238341       0.02462693
Pt       8.42164222       6.48298341      24.58417373        2       0.00000000       0.00025016      -0.00282713       0.01507411
Pt       0.00255524       0.00551065      26.91671312        1       0.00000000       0.02074470       0.00749244       0.01043778
Pt       2.80562796      -0.00632668      26.91592559        1       0.00000000      -0.02110643      -0.00643935       0.00426911
Pt       5.61380251      -0.00056503      26.91716555        1       0.00000000       0.00132227       0.00039152       0.02313938
Pt       1.39457232       2.42626902      26.92069021        1       0.00000000       0.03948075       0.02482477       0.00048460
Pt       4.23373966       2.38911627      26.90584509        1       0.00000000      -0.00199262       0.00072325      -0.00344702
Pt       7.02510928       2.43017130      26.91578341        1       0.00000000       0.01612288       0.01265299       0.00858585
Pt       2.78371864       4.90414777      26.90615904        1       0.00000000       0.00273804      -0.00066032      -0.00098848
Pt       5.62325089       4.86731683      26.92027493        1       0.00000000      -0.04107243      -0.02520065      -0.00649209
Pt       8.41438930       4.86412266      26.91479678        1       0.00000000      -0.01740379      -0.01448476       0.00188905
O        3.50685009       3.64567254      29.43507517        0       0.50000000      -0.02606388      -0.01181350       0.00946460
H        3.51215215       3.64832066      28.44130965        0       0.50000000       0.03316717       0.01653154      -0.00152247
