38
Lattice="8.421641763931781 0.0 0.0 4.2108208819658905 7.293355709136913 0.0 0.0 0.0 46.87624170604845" Properties=species:S:1:pos:R:3:tags:I:1:initial_magmoms:R:1:forces:R:3 charge=0 spin=0 energy=-196.55134722287022 free_energy=-196.55134722287022 stress="0.009092501364648342 -0.0003976469160988927 -0.00020685150229837745 -0.0003976469160988927 0.00942678190767765 -8.130986680043861e-05 -0.00020685150229837745 -8.130986680043861e-05 -0.0003263599064666778" pbc="T T T"
Pt      -0.00000001       0.00000015      19.95723445        4       0.00000000       0.00498968      -0.01255918      -0.02258626
Pt       2.80721394      -0.00000009      19.95723448        4       0.00000000      -0.00575733      -0.00675870       0.01318576
Pt       5.61442781      -0.00000017      19.95723450        4       0.00000000       0.01495022       0.00823467       0.03339533
Pt       1.40360720       2.43111836      19.95723436        4       0.00000000      -0.00952657      -0.01173042       0.01739501
Pt       4.21082078       2.43111836      19.95723446        4       0.00000000       0.00048321      -0.00156640       0.01481465
Pt       7.01803484       2.43111844      19.95723431        4       0.00000000      -0.00402536       0.01163226      -0.02203770
Pt       2.80721414       4.86223727      19.95723413        4       0.00000000       0.00028641       0.00115015       0.01267312
Pt       5.61442797       4.86223736      19.95723433        4       0.00000000      -0.00285961      -0.00134876       0.00327991
Pt       8.42164142       4.86223724      19.95723439        4       0.00000000      -0.00939892      -0.00495010       0.01728475
Pt       1.40360727       0.81037261      22.29206790        3       0.00000000      -0.03371920      -0.02501678      -0.09034449
Pt       4.21082126       0.81037249      22.29206793        3       0.00000000      -0.02740300      -0.00999801      -0.04885239
Pt       7.01803475       0.81037258      22.29206787        3       0.00000000       0.01606502       0.00722025       0.05363576
Pt       2.80721449       3.24149123      22.29206778        3       0.00000000      -0.02089846      -0.01341946      -0.03570207
Pt       5.61442761       3.24149123      22.29206789        3       0.00000000      -0.00209876      -0.01043253      -0.07333620
Pt       8.42164155       3.24149130      22.29206812        3       0.00000000      -0.03128443      -0.02207215      -0.09511099
Pt       4.21082090       5.67260997      22.29206743        3       0.00000000      -0.00965537       0.00353031      -0.07734580
Pt       7.01803489       5.67261038      22.29206778        3       0.00000000      -0.01493781      -0.01436438      -0.07414312
Pt       9.82524818       5.67261058      22.29206804        3       0.00000000      -0.01397954      -0.02716566      -0.04600523
Pt      -0.00000057       1.62074568      24.58417368        2       0.00000000      -0.08656226      -0.04173354      -0.24915631
Pt       2.80721445       1.62074549      24.58417387        2       0.00000000       0.13389431       0.03919458      -0.03411051
Pt       5.61442780       1.62074538      24.58417368        2       0.00000000      -0.22551291       0.18931639       0.49642870
Pt       1.40360635       4.05186441      24.58417386        2       0.00000000       0.08546840       0.12986274      -0.03766050
Pt       4.21082088       4.05186391      24.58417389        2       0.00000000       0.01667698       0.02645938      -0.02407744
Pt       7.01803505       4.05186405      24.58417404        2       0.00000000       0.09628914      -0.02355408      -0.12676370
Pt       2.80721273       6.48298348      24.58417381        2       0.00000000       0.02102219      -0.28295457       0.51027554
Pt       5.61442805       6.48298330      24.58417394        2       0.00000000       0.00631946       0.13263433      -0.14006272
Pt       8.42164222       6.48298341      24.58417373        2       0.00000000       0.00604987       0.01687223      -0.02816510
Pt       0.05925477       0.06021390      26.93778916        1       0.00000000       0.00182784       0.00676188       0.00687521
Pt       2.86177083       0.05867775      26.91257094        1       0.00000000       0.03033182      -0.01798667       0.01261038
Pt       5.67032054       0.04469967      26.91077472        1       0.00000000       0.00650551       0.00592543      -0.00452755
Pt       1.38645344       2.44316709      26.83999804        1       0.00000000       0.00156849      -0.02380321       0.02773315
Pt       4.33584603       2.46864051      26.94775306        1       0.00000000       0.00102217      -0.01041189      -0.00446320
Pt       7.08431265       2.48847996      26.93893144        1       0.00000000       0.01593951      -0.03438267       0.00326681
Pt       2.89069918       4.96946831      26.95073779        1       0.00000000      -0.00454692       0.01473679      -0.00550240
Pt       5.73390834       4.95205052      26.87933896        1       0.00000000       0.00929270      -0.01722196      -0.00646269
Pt       8.47827799       4.91432698      26.91278919        1       0.00000000       0.02419590       0.00445964       0.00820490
O        3.43687597       3.61922291      28.58126407        0       0.50000000       0.02434980       0.00572073       0.04223381
H        4.19097138       4.04516506      29.04753894        0       0.50000000      -0.01536196       0.00971940      -0.02687635
