38
Lattice="8.421641763931781 0.0 0.0 4.2108208819658905 7.293355709136913 0.0 0.0 0.0 46.87624170604845" Properties=species:S:1:pos:R:3:tags:I:1:initial_magmoms:R:1:forces:R:3 charge=0 spin=0 energy=-196.5526594787296 free_energy=-196.5526594787296 stress="0.00907872710376978 -0.00036940144491381943 -0.0002092217473546043 -0.00036940144491381943 0.009471587836742401 -0.00011751325655495748 -0.0002092217473546043 -0.00011751325655495748 -0.0003018468851223588" pbc="T T T"
Pt      -0.00000001       0.00000015      19.95723445        4       0.00000000       0.00421379      -0.01224848      -0.02264233
Pt       2.80721394      -0.00000009      19.95723448        4       0.00000000      -0.00800582      -0.00579842       0.01259396
Pt       5.61442781      -0.00000017      19.95723450        4       0.00000000       0.01301804       0.00860968       0.03385332
Pt       1.40360720       2.43111836      19.95723436        4       0.00000000      -0.01149124      -0.01137311       0.01727663
Pt       4.21082078       2.43111836      19.95723446        4       0.00000000      -0.00144237      -0.00134507       0.01529078
Pt       7.01803484       2.43111844      19.95723431        4       0.00000000      -0.00526606       0.01201991      -0.02274756
Pt       2.80721414       4.86223727      19.95723413        4       0.00000000      -0.00184402       0.00166678       0.01247189
Pt       5.61442797       4.86223736      19.95723433        4       0.00000000      -0.00463866      -0.00102456       0.00358483
Pt       8.42164142       4.86223724      19.95723439        4       0.00000000      -0.01141292      -0.00429643       0.01708948
Pt       1.40360727       0.81037261      22.29206790        3       0.00000000      -0.03951799      -0.02035632      -0.08855644
Pt       4.21082126       0.81037249      22.29206793        3       0.00000000      -0.03401419      -0.00584926      -0.04802542
Pt       7.01803475       0.81037258      22.29206787        3       0.00000000       0.00989313       0.00926879       0.05391857
Pt       2.80721449       3.24149123      22.29206778        3       0.00000000      -0.02671376      -0.00888094      -0.03737900
Pt       5.61442761       3.24149123      22.29206789        3       0.00000000      -0.00730862      -0.00792996      -0.07307353
Pt       8.42164155       3.24149130      22.29206812        3       0.00000000      -0.03794403      -0.01642981      -0.09403165
Pt       4.21082090       5.67260997      22.29206743        3       0.00000000      -0.01637141       0.00604920      -0.07821376
Pt       7.01803489       5.67261038      22.29206778        3       0.00000000      -0.02196457      -0.00995329      -0.07573351
Pt       9.82524818       5.67261058      22.29206804        3       0.00000000      -0.02163265      -0.02321575      -0.04713001
Pt      -0.00000057       1.62074568      24.58417368        2       0.00000000      -0.05684535      -0.05285073      -0.23581380
Pt       2.80721445       1.62074549      24.58417387        2       0.00000000       0.15260190       0.01761773      -0.03273301
Pt       5.61442780       1.62074538      24.58417368        2       0.00000000      -0.21245803       0.18611462       0.49312696
Pt       1.40360635       4.05186441      24.58417386        2       0.00000000       0.09684790       0.10158665      -0.03288118
Pt       4.21082088       4.05186391      24.58417389        2       0.00000000       0.03500456       0.01335172      -0.02905273
Pt       7.01803505       4.05186405      24.58417404        2       0.00000000       0.12228588      -0.04085848      -0.12669322
Pt       2.80721273       6.48298348      24.58417381        2       0.00000000       0.04611224      -0.28970012       0.49941003
Pt       5.61442805       6.48298330      24.58417394        2       0.00000000       0.02746411       0.11905267      -0.12042669
Pt       8.42164222       6.48298341      24.58417373        2       0.00000000       0.02589091       0.00204065      -0.02232710
Pt       0.08646639       0.04492272      26.94141891        1       0.00000000       0.01261046       0.02884383      -0.00043013
Pt       2.89439360       0.04085886      26.91641512        1       0.00000000      -0.00384798       0.00994251       0.00069741
Pt       5.69672935       0.04448584      26.91109516        1       0.00000000      -0.01649243      -0.02091225       0.00279352
Pt       1.41375235       2.42618638      26.84497319        1       0.00000000      -0.01335312      -0.00985792       0.00182855
Pt       4.35755064       2.46293487      26.94808289        1       0.00000000      -0.00279988       0.00440730       0.01226422
Pt       7.11354316       2.46834503      26.93898184        1       0.00000000      -0.01075673       0.01606030       0.00470578
Pt       2.91066755       4.96631143      26.94327901        1       0.00000000      -0.00921994      -0.01071602       0.02035970
Pt       5.75999223       4.93840447      26.87982732        1       0.00000000       0.00183110      -0.00347768      -0.00630862
Pt       8.50740576       4.90033975      26.91567018        1       0.00000000      -0.00137854       0.01325970      -0.00231344
O        3.44584059       3.62163914      28.58002236        0       0.50000000      -0.00233085      -0.00933367      -0.00152769
H        4.19256249       4.05510840      29.04875817        0       0.50000000       0.03127701       0.01651631      -0.00322491
