38
Lattice="8.421641763931781 0.0 0.0 4.2108208819658905 7.293355709136913 0.0 0.0 0.0 46.87624170604845" Properties=species:S:1:pos:R:3:tags:I:1:initial_magmoms:R:1:forces:R:3 charge=0 spin=0 energy=-194.61144396359288 free_energy=-194.61144396359288 stress="0.009887179359793663 0.00015180825721472502 -5.508810318133328e-06 0.00015180825721472502 0.009726324118673801 -4.516227363637881e-06 -5.508810318133328e-06 -4.516227363637881e-06 -0.00012574129505082965" pbc="T T T"
Pt      -0.00000001       0.00000015      19.95723445        4       0.00000000      -0.00334527       0.00406525      -0.00273718
Pt       2.80721394      -0.00000009      19.95723448        4       0.00000000       0.00027103      -0.00091675       0.01413391
Pt       5.61442781      -0.00000017      19.95723450        4       0.00000000       0.00238642       0.00153514       0.00958706
Pt       1.40360720       2.43111836      19.95723436        4       0.00000000      -0.00365028      -0.00384912       0.01149772
Pt       4.21082078       2.43111836      19.95723446        4       0.00000000       0.00284001      -0.00099938       0.01179123
Pt       7.01803484       2.43111844      19.95723431        4       0.00000000       0.00233123      -0.00464795      -0.00283282
Pt       2.80721414       4.86223727      19.95723413        4       0.00000000      -0.00162768       0.00316180       0.01059117
Pt       5.61442797       4.86223736      19.95723433        4       0.00000000       0.00133890       0.00122940       0.01233514
Pt       8.42164142       4.86223724      19.95723439        4       0.00000000      -0.00114291       0.00043423       0.01303094
Pt       1.40360727       0.81037261      22.29206790        3       0.00000000       0.00102978      -0.00601816      -0.02138174
Pt       4.21082126       0.81037249      22.29206793        3       0.00000000      -0.00834150      -0.00044490      -0.04074295
Pt       7.01803475       0.81037258      22.29206787        3       0.00000000      -0.00168132      -0.00047821       0.02729078
Pt       2.80721449       3.24149123      22.29206778        3       0.00000000       0.00316540       0.00413988      -0.03434093
Pt       5.61442761       3.24149123      22.29206789        3       0.00000000      -0.00077004       0.00780474      -0.04154338
Pt       8.42164155       3.24149130      22.29206812        3       0.00000000      -0.00238509       0.00445383      -0.02404701
Pt       4.21082090       5.67260997      22.29206743        3       0.00000000       0.00547226      -0.00547965      -0.04185960
Pt       7.01803489       5.67261038      22.29206778        3       0.00000000       0.00123950       0.00238574      -0.04191580
Pt       9.82524818       5.67261058      22.29206804        3       0.00000000      -0.00396193      -0.00990089      -0.03961600
Pt      -0.00000057       1.62074568      24.58417368        2       0.00000000       0.02197275       0.01118138       0.02695629
Pt       2.80721445       1.62074549      24.58417387        2       0.00000000      -0.01090805      -0.00105134       0.01967308
Pt       5.61442780       1.62074538      24.58417368        2       0.00000000       0.02285036      -0.00321999      -0.02082217
Pt       1.40360635       4.05186441      24.58417386        2       0.00000000      -0.01101750      -0.01627100       0.02429418
Pt       4.21082088       4.05186391      24.58417389        2       0.00000000      -0.00107175      -0.00132541       0.04328881
Pt       7.01803505       4.05186405      24.58417404        2       0.00000000      -0.01704120       0.00617565       0.02524996
Pt       2.80721273       6.48298348      24.58417381        2       0.00000000      -0.00020414       0.01922898      -0.02340444
Pt       5.61442805       6.48298330      24.58417394        2       0.00000000      -0.00393603      -0.01238339       0.02462737
Pt       8.42164222       6.48298341      24.58417373        2       0.00000000       0.00025004      -0.00282722       0.01507440
Pt       0.00255502       0.00551052      26.91671304        1       0.00000000       0.02074426       0.00749374       0.01043816
Pt       2.80562807      -0.00632654      26.91592563        1       0.00000000      -0.02110542      -0.00644136       0.00426844
Pt       5.61380251      -0.00056504      26.91716549        1       0.00000000       0.00132194       0.00039161       0.02313906
Pt       1.39457234       2.42626901      26.92069019        1       0.00000000       0.03947753       0.02482502       0.00048450
Pt       4.23373929       2.38911708      26.90584535        1       0.00000000      -0.00199069       0.00071848      -0.00344636
Pt       7.02510905       2.43017127      26.91578342        1       0.00000000       0.01612767       0.01265403       0.00858711
Pt       2.78371910       4.90414696      26.90615930        1       0.00000000       0.00273683      -0.00065679      -0.00098901
Pt       5.62325090       4.86731682      26.92027494        1       0.00000000      -0.04107093      -0.02519896      -0.00649139
Pt       8.41438952       4.86412269      26.91479694        1       0.00000000      -0.01740423      -0.01448417       0.00188869
O        3.50685021       3.64567260      29.43507611        0       0.50000000      -0.02606606      -0.01181547       0.00946545
H        3.51215199       3.64832058      28.44130827        0       0.50000000       0.03316582       0.01653167      -0.00152235
