38
Lattice="8.421641763931781 0.0 0.0 4.2108208819658905 7.293355709136913 0.0 0.0 0.0 46.87624170604845" Properties=species:S:1:pos:R:3:tags:I:1:initial_magmoms:R:1:forces:R:3 charge=0 spin=0 energy=-196.54989763790928 free_energy=-196.54989763790928 stress="0.009120290167629719 -0.0004091341106686741 -0.000204149866476655 -0.0004091341106686741 0.009479290805757046 -7.700317655690014e-05 -0.000204149866476655 -7.700317655690014e-05 -0.00028670887695625424" pbc="T T T"
Pt      -0.00000001       0.00000015      19.95723445        4       0.00000000       0.00427943      -0.01101470      -0.02058436
Pt       2.80721394      -0.00000009      19.95723448        4       0.00000000      -0.00446295      -0.00520094       0.01395073
Pt       5.61442781      -0.00000017      19.95723450        4       0.00000000       0.01479028       0.00885424       0.03264821
Pt       1.40360720       2.43111836      19.95723436        4       0.00000000      -0.00848315      -0.01013998       0.01760918
Pt       4.21082078       2.43111836      19.95723446        4       0.00000000       0.00096039      -0.00070842       0.01462560
Pt       7.01803484       2.43111844      19.95723431        4       0.00000000      -0.00359851       0.01224809      -0.02197433
Pt       2.80721414       4.86223727      19.95723413        4       0.00000000       0.00083917       0.00186598       0.01216752
Pt       5.61442797       4.86223736      19.95723433        4       0.00000000      -0.00177151      -0.00058021       0.00333114
Pt       8.42164142       4.86223724      19.95723439        4       0.00000000      -0.00811758      -0.00388767       0.01787686
Pt       1.40360727       0.81037261      22.29206790        3       0.00000000      -0.03131788      -0.02053806      -0.08721998
Pt       4.21082126       0.81037249      22.29206793        3       0.00000000      -0.02274736      -0.00562407      -0.04801642
Pt       7.01803475       0.81037258      22.29206787        3       0.00000000       0.01690050       0.01144981       0.05013230
Pt       2.80721449       3.24149123      22.29206778        3       0.00000000      -0.01789023      -0.00932239      -0.03264664
Pt       5.61442761       3.24149123      22.29206789        3       0.00000000       0.00212512      -0.00634816      -0.07260843
Pt       8.42164155       3.24149130      22.29206812        3       0.00000000      -0.02852324      -0.01966310      -0.09228873
Pt       4.21082090       5.67260997      22.29206743        3       0.00000000      -0.00586374       0.00560074      -0.07788318
Pt       7.01803489       5.67261038      22.29206778        3       0.00000000      -0.01120696      -0.01026294      -0.07377268
Pt       9.82524818       5.67261058      22.29206804        3       0.00000000      -0.00965127      -0.02206474      -0.04743733
Pt      -0.00000057       1.62074568      24.58417368        2       0.00000000      -0.08490320      -0.04402728      -0.24121204
Pt       2.80721445       1.62074549      24.58417387        2       0.00000000       0.11745352       0.02987029      -0.01184220
Pt       5.61442780       1.62074538      24.58417368        2       0.00000000      -0.23168100       0.16819464       0.47372949
Pt       1.40360635       4.05186441      24.58417386        2       0.00000000       0.07456946       0.10258490      -0.00916145
Pt       4.21082088       4.05186391      24.58417389        2       0.00000000       0.00422075       0.01403076      -0.02644614
Pt       7.01803505       4.05186405      24.58417404        2       0.00000000       0.10127229      -0.03861193      -0.13324706
Pt       2.80721273       6.48298348      24.58417381        2       0.00000000       0.00099066      -0.28537503       0.50709897
Pt       5.61442805       6.48298330      24.58417394        2       0.00000000       0.00216827       0.12803179      -0.14078827
Pt       8.42164222       6.48298341      24.58417373        2       0.00000000      -0.00741690       0.00083379      -0.01896675
Pt       0.04584957       0.04564363      26.93596733        1       0.00000000      -0.00506399       0.00414142       0.00553101
Pt       2.84806280       0.04512133      26.91534078        1       0.00000000       0.02186642      -0.03178322       0.00090280
Pt       5.64916057       0.03484980      26.90970120        1       0.00000000       0.03056940      -0.01171487      -0.00230616
Pt       1.37450509       2.42568981      26.84929370        1       0.00000000       0.00557108       0.00296827      -0.00361209
Pt       4.31133677       2.45519801      26.95019044        1       0.00000000       0.01640244       0.02071803       0.01179761
Pt       7.06651807       2.46901999      26.93688296        1       0.00000000       0.02788710      -0.01100010       0.00382312
Pt       2.87221888       4.95449066      26.95135615        1       0.00000000       0.01410909       0.01854918      -0.00154421
Pt       5.71846734       4.93385510      26.87182927        1       0.00000000       0.03239870       0.00916850       0.00246234
Pt       8.46897102       4.89537941      26.91417486        1       0.00000000      -0.00425731       0.01909259      -0.00311486
O        3.44055568       3.63653106      28.59609661        0       0.50000000      -0.00003386      -0.02055669      -0.03575550
H        4.21563648       4.07615751      29.01167743        0       0.50000000      -0.00238346       0.01022156       0.03474206
