38
Lattice="8.421641763931781 0.0 0.0 4.2108208819658905 7.293355709136913 0.0 0.0 0.0 46.87624170604845" Properties=species:S:1:pos:R:3:tags:I:1:initial_magmoms:R:1:forces:R:3 charge=0 spin=0 energy=-196.55126329953038 free_energy=-196.55126329953038 stress="0.009091194719076157 -0.00039774543256498873 -0.0002075307274935767 -0.00039774543256498873 0.009426749311387539 -8.191158121917397e-05 -0.0002075307274935767 -8.191158121917397e-05 -0.00032806937815621495" pbc="T T T"
Pt      -0.00000001       0.00000015      19.95723445        4       0.00000000       0.00502024      -0.01257645      -0.02261103
Pt       2.80721394      -0.00000009      19.95723448        4       0.00000000      -0.00571145      -0.00677287       0.01318258
Pt       5.61442781      -0.00000017      19.95723450        4       0.00000000       0.01492872       0.00821690       0.03337684
Pt       1.40360720       2.43111836      19.95723436        4       0.00000000      -0.00951806      -0.01174403       0.01739860
Pt       4.21082078       2.43111836      19.95723446        4       0.00000000       0.00051861      -0.00155760       0.01480785
Pt       7.01803484       2.43111844      19.95723431        4       0.00000000      -0.00401376       0.01159027      -0.02201680
Pt       2.80721414       4.86223727      19.95723413        4       0.00000000       0.00032228       0.00114463       0.01265766
Pt       5.61442797       4.86223736      19.95723433        4       0.00000000      -0.00285976      -0.00134840       0.00326619
Pt       8.42164142       4.86223724      19.95723439        4       0.00000000      -0.00936175      -0.00491173       0.01729993
Pt       1.40360727       0.81037261      22.29206790        3       0.00000000      -0.03368559      -0.02506237      -0.09048910
Pt       4.21082126       0.81037249      22.29206793        3       0.00000000      -0.02739133      -0.01001745      -0.04865283
Pt       7.01803475       0.81037258      22.29206787        3       0.00000000       0.01619957       0.00710611       0.05363365
Pt       2.80721449       3.24149123      22.29206778        3       0.00000000      -0.02083327      -0.01345641      -0.03574859
Pt       5.61442761       3.24149123      22.29206789        3       0.00000000      -0.00203776      -0.01041948      -0.07325303
Pt       8.42164155       3.24149130      22.29206812        3       0.00000000      -0.03117912      -0.02212835      -0.09520531
Pt       4.21082090       5.67260997      22.29206743        3       0.00000000      -0.00955066       0.00351485      -0.07734546
Pt       7.01803489       5.67261038      22.29206778        3       0.00000000      -0.01489854      -0.01437824      -0.07413834
Pt       9.82524818       5.67261058      22.29206804        3       0.00000000      -0.01390778      -0.02723640      -0.04579385
Pt      -0.00000057       1.62074568      24.58417368        2       0.00000000      -0.08697682      -0.04182331      -0.24769691
Pt       2.80721445       1.62074549      24.58417387        2       0.00000000       0.13453706       0.03924414      -0.03517546
Pt       5.61442780       1.62074538      24.58417368        2       0.00000000      -0.22596456       0.18944469       0.49679747
Pt       1.40360635       4.05186441      24.58417386        2       0.00000000       0.08508801       0.13068324      -0.03911132
Pt       4.21082088       4.05186391      24.58417389        2       0.00000000       0.01676517       0.02620034      -0.02405415
Pt       7.01803505       4.05186405      24.58417404        2       0.00000000       0.09591126      -0.02357789      -0.12681125
Pt       2.80721273       6.48298348      24.58417381        2       0.00000000       0.02069290      -0.28259334       0.50917059
Pt       5.61442805       6.48298330      24.58417394        2       0.00000000       0.00605631       0.13273910      -0.14032902
Pt       8.42164222       6.48298341      24.58417373        2       0.00000000       0.00598040       0.01704232      -0.02849648
Pt       0.05862332       0.05969440      26.93779806        1       0.00000000       0.00444139       0.01185411       0.00630232
Pt       2.86144821       0.05892567      26.91232786        1       0.00000000       0.03016871      -0.01861847       0.01347780
Pt       5.67014454       0.04454314      26.91073431        1       0.00000000       0.00585819       0.00702091      -0.00417512
Pt       1.38686444       2.44362258      26.83951603        1       0.00000000      -0.00387384      -0.02710119       0.02942644
Pt       4.33579035       2.46873437      26.94804503        1       0.00000000      -0.00002619      -0.01104135      -0.00526216
Pt       7.08352647       2.48862374      26.93897422        1       0.00000000       0.02114300      -0.03540543       0.00258388
Pt       2.89042152       4.96945441      26.95053778        1       0.00000000      -0.00504509       0.01282024      -0.00396716
Pt       5.73370291       4.95222402      26.87941330        1       0.00000000       0.00907557      -0.01754515      -0.00641028
Pt       8.47778039       4.91435816      26.91267307        1       0.00000000       0.02507265       0.00414495       0.00854809
O        3.43684411       3.61875100      28.58144754        0       0.50000000       0.02044702       0.00586646       0.03949050
H        4.19045153       4.04533802      29.04769934        0       0.50000000      -0.01139182       0.01068255      -0.02467661
