38
Lattice="8.421641763931781 0.0 0.0 4.2108208819658905 7.293355709136913 0.0 0.0 0.0 46.87624170604845" Properties=species:S:1:pos:R:3:tags:I:1:initial_magmoms:R:1:forces:R:3 charge=0 spin=0 energy=-194.61144396359288 free_energy=-194.61144396359288 stress="0.009887182153761387 0.00015180982882156968 -5.511142262548674e-06 0.00015180982882156968 0.0097263278439641 -4.5155497900850605e-06 -5.511142262548674e-06 -4.5155497900850605e-06 -0.00012573781714309007" pbc="T T T"
Pt      -0.00000001       0.00000015      19.95723445        4       0.00000000      -0.00334541       0.00406530      -0.00273712
Pt       2.80721394      -0.00000009      19.95723448        4       0.00000000       0.00027106      -0.00091673       0.01413391
Pt       5.61442781      -0.00000017      19.95723450        4       0.00000000       0.00238656       0.00153512       0.00958719
Pt       1.40360720       2.43111836      19.95723436        4       0.00000000      -0.00365029      -0.00384922       0.01149791
Pt       4.21082078       2.43111836      19.95723446        4       0.00000000       0.00284008      -0.00099942       0.01179112
Pt       7.01803484       2.43111844      19.95723431        4       0.00000000       0.00233125      -0.00464804      -0.00283286
Pt       2.80721414       4.86223727      19.95723413        4       0.00000000      -0.00162756       0.00316188       0.01059138
Pt       5.61442797       4.86223736      19.95723433        4       0.00000000       0.00133888       0.00122955       0.01233506
Pt       8.42164142       4.86223724      19.95723439        4       0.00000000      -0.00114294       0.00043435       0.01303086
Pt       1.40360727       0.81037261      22.29206790        3       0.00000000       0.00102961      -0.00601816      -0.02138163
Pt       4.21082126       0.81037249      22.29206793        3       0.00000000      -0.00834161      -0.00044500      -0.04074317
Pt       7.01803475       0.81037258      22.29206787        3       0.00000000      -0.00168144      -0.00047833       0.02729111
Pt       2.80721449       3.24149123      22.29206778        3       0.00000000       0.00316531       0.00413998      -0.03434084
Pt       5.61442761       3.24149123      22.29206789        3       0.00000000      -0.00077017       0.00780481      -0.04154323
Pt       8.42164155       3.24149130      22.29206812        3       0.00000000      -0.00238513       0.00445383      -0.02404696
Pt       4.21082090       5.67260997      22.29206743        3       0.00000000       0.00547226      -0.00547990      -0.04185955
Pt       7.01803489       5.67261038      22.29206778        3       0.00000000       0.00123945       0.00238575      -0.04191608
Pt       9.82524818       5.67261058      22.29206804        3       0.00000000      -0.00396197      -0.00990099      -0.03961594
Pt      -0.00000057       1.62074568      24.58417368        2       0.00000000       0.02197268       0.01118142       0.02695630
Pt       2.80721445       1.62074549      24.58417387        2       0.00000000      -0.01090804      -0.00105086       0.01967345
Pt       5.61442780       1.62074538      24.58417368        2       0.00000000       0.02285114      -0.00321976      -0.02082261
Pt       1.40360635       4.05186441      24.58417386        2       0.00000000      -0.01101704      -0.01627103       0.02429427
Pt       4.21082088       4.05186391      24.58417389        2       0.00000000      -0.00107185      -0.00132614       0.04328999
Pt       7.01803505       4.05186405      24.58417404        2       0.00000000      -0.01704149       0.00617570       0.02524999
Pt       2.80721273       6.48298348      24.58417381        2       0.00000000      -0.00020409       0.01922934      -0.02340472
Pt       5.61442805       6.48298330      24.58417394        2       0.00000000      -0.00393596      -0.01238337       0.02462731
Pt       8.42164222       6.48298341      24.58417373        2       0.00000000       0.00025008      -0.00282730       0.01507415
Pt       0.00255516       0.00551066      26.91671304        1       0.00000000       0.02074420       0.00749265       0.01043786
Pt       2.80562796      -0.00632666      26.91592559        1       0.00000000      -0.02110548      -0.00644145       0.00426865
Pt       5.61380249      -0.00056501      26.91716555        1       0.00000000       0.00132242       0.00039148       0.02313938
Pt       1.39457232       2.42626904      26.92069020        1       0.00000000       0.03948046       0.02482535       0.00048390
Pt       4.23373972       2.38911628      26.90584510        1       0.00000000      -0.00199182       0.00072375      -0.00344687
Pt       7.02510931       2.43017130      26.91578337        1       0.00000000       0.01612302       0.01265311       0.00858594
Pt       2.78371864       4.90414770      26.90615908        1       0.00000000       0.00273799      -0.00066002      -0.00098848
Pt       5.62325088       4.86731682      26.92027494        1       0.00000000      -0.04107221      -0.02519998      -0.00649156
Pt       8.41438933       4.86412264      26.91479688        1       0.00000000      -0.01740420      -0.01448406       0.00188871
O        3.50685007       3.64567254      29.43507513        0       0.50000000      -0.02606493      -0.01181484       0.00946562
H        3.51215216       3.64832066      28.44130966        0       0.50000000       0.03316709       0.01653155      -0.00152235
