38
Lattice="8.421641763931781 0.0 0.0 4.2108208819658905 7.293355709136913 0.0 0.0 0.0 46.87624170604845" Properties=species:S:1:pos:R:3:tags:I:1:initial_magmoms:R:1:forces:R:3 charge=0 spin=0 energy=-196.54989382321202 free_energy=-196.54989382321202 stress="0.009120230562984943 -0.00040912305121310055 -0.00020426936680451035 -0.00040912305121310055 0.00947947334498167 -7.70440383348614e-05 -0.00020426936680451035 -7.70440383348614e-05 -0.0002866946451831609" pbc="T T T"
Pt      -0.00000001       0.00000015      19.95723445        4       0.00000000       0.00427967      -0.01101438      -0.02058429
Pt       2.80721394      -0.00000009      19.95723448        4       0.00000000      -0.00446281      -0.00520098       0.01395077
Pt       5.61442781      -0.00000017      19.95723450        4       0.00000000       0.01478703       0.00885317       0.03264798
Pt       1.40360720       2.43111836      19.95723436        4       0.00000000      -0.00848255      -0.01014135       0.01761040
Pt       4.21082078       2.43111836      19.95723446        4       0.00000000       0.00096431      -0.00071038       0.01462384
Pt       7.01803484       2.43111844      19.95723431        4       0.00000000      -0.00359818       0.01224905      -0.02197339
Pt       2.80721414       4.86223727      19.95723413        4       0.00000000       0.00083921       0.00186694       0.01216629
Pt       5.61442797       4.86223736      19.95723433        4       0.00000000      -0.00177197      -0.00058125       0.00333161
Pt       8.42164142       4.86223724      19.95723439        4       0.00000000      -0.00811223      -0.00388618       0.01787883
Pt       1.40360727       0.81037261      22.29206790        3       0.00000000      -0.03131405      -0.02053817      -0.08721560
Pt       4.21082126       0.81037249      22.29206793        3       0.00000000      -0.02274783      -0.00562625      -0.04801442
Pt       7.01803475       0.81037258      22.29206787        3       0.00000000       0.01689673       0.01145402       0.05013688
Pt       2.80721449       3.24149123      22.29206778        3       0.00000000      -0.01788224      -0.00932990      -0.03266277
Pt       5.61442761       3.24149123      22.29206789        3       0.00000000       0.00212815      -0.00634425      -0.07260325
Pt       8.42164155       3.24149130      22.29206812        3       0.00000000      -0.02851404      -0.01966407      -0.09228402
Pt       4.21082090       5.67260997      22.29206743        3       0.00000000      -0.00585864       0.00559886      -0.07787871
Pt       7.01803489       5.67261038      22.29206778        3       0.00000000      -0.01120442      -0.01026235      -0.07378687
Pt       9.82524818       5.67261058      22.29206804        3       0.00000000      -0.00964520      -0.02206653      -0.04742012
Pt      -0.00000057       1.62074568      24.58417368        2       0.00000000      -0.08488683      -0.04403462      -0.24109535
Pt       2.80721445       1.62074549      24.58417387        2       0.00000000       0.11741795       0.02986806      -0.01190718
Pt       5.61442780       1.62074538      24.58417368        2       0.00000000      -0.23162523       0.16816932       0.47369304
Pt       1.40360635       4.05186441      24.58417386        2       0.00000000       0.07448421       0.10259077      -0.00918003
Pt       4.21082088       4.05186391      24.58417389        2       0.00000000       0.00425983       0.01406059      -0.02647647
Pt       7.01803505       4.05186405      24.58417404        2       0.00000000       0.10123629      -0.03863623      -0.13315767
Pt       2.80721273       6.48298348      24.58417381        2       0.00000000       0.00096428      -0.28536919       0.50701690
Pt       5.61442805       6.48298330      24.58417394        2       0.00000000       0.00213208       0.12805946      -0.14074133
Pt       8.42164222       6.48298341      24.58417373        2       0.00000000      -0.00740574       0.00085573      -0.01899059
Pt       0.04577670       0.04560966      26.93597964        1       0.00000000      -0.00477728       0.00430286       0.00545119
Pt       2.84806844       0.04514812      26.91532646        1       0.00000000       0.02171871      -0.03185326       0.00095377
Pt       5.64917840       0.03484001      26.90970998        1       0.00000000       0.03046178      -0.01169935      -0.00230574
Pt       1.37452386       2.42570525      26.84929053        1       0.00000000       0.00532573       0.00283493      -0.00363494
Pt       4.31135753       2.45519401      26.95015309        1       0.00000000       0.01624450       0.02077993       0.01197781
Pt       7.06651890       2.46900565      26.93690663        1       0.00000000       0.02792922      -0.01089897       0.00372189
Pt       2.87215394       4.95440930      26.95132544        1       0.00000000       0.01428733       0.01866304      -0.00138791
Pt       5.71845388       4.93388712      26.87184918        1       0.00000000       0.03237031       0.00905822       0.00236473
Pt       8.46890959       4.89541709      26.91417686        1       0.00000000      -0.00412481       0.01891669      -0.00311397
O        3.44055296       3.63654196      28.59612665        0       0.50000000      -0.00020944      -0.02081180      -0.03626741
H        4.21570767       4.07617163      29.01154377        0       0.50000000      -0.00210376       0.01048793       0.03515629
