38
Lattice="8.421641763931781 0.0 0.0 4.2108208819658905 7.293355709136913 0.0 0.0 0.0 46.87624170604845" Properties=species:S:1:pos:R:3:tags:I:1:initial_magmoms:R:1:forces:R:3 charge=0 spin=0 energy=-196.5513395934757 free_energy=-196.5513395934757 stress="0.009093081578612328 -0.00039750663563609123 -0.00020711413526441902 -0.00039750663563609123 0.009427242912352085 -8.14274899312295e-05 -0.00020711413526441902 -8.14274899312295e-05 -0.00032635926618240774" pbc="T T T"
Pt      -0.00000001       0.00000015      19.95723445        4       0.00000000       0.00499402      -0.01256295      -0.02258749
Pt       2.80721394      -0.00000009      19.95723448        4       0.00000000      -0.00575107      -0.00675554       0.01318932
Pt       5.61442781      -0.00000017      19.95723450        4       0.00000000       0.01494217       0.00822895       0.03339196
Pt       1.40360720       2.43111836      19.95723436        4       0.00000000      -0.00951769      -0.01172692       0.01739999
Pt       4.21082078       2.43111836      19.95723446        4       0.00000000       0.00047823      -0.00157230       0.01480954
Pt       7.01803484       2.43111844      19.95723431        4       0.00000000      -0.00402586       0.01163640      -0.02203471
Pt       2.80721414       4.86223727      19.95723413        4       0.00000000       0.00028037       0.00114795       0.01267178
Pt       5.61442797       4.86223736      19.95723433        4       0.00000000      -0.00286176      -0.00135367       0.00328089
Pt       8.42164142       4.86223724      19.95723439        4       0.00000000      -0.00938992      -0.00494210       0.01729052
Pt       1.40360727       0.81037261      22.29206790        3       0.00000000      -0.03372597      -0.02501490      -0.09036693
Pt       4.21082126       0.81037249      22.29206793        3       0.00000000      -0.02739515      -0.01000095      -0.04881452
Pt       7.01803475       0.81037258      22.29206787        3       0.00000000       0.01606723       0.00723742       0.05354436
Pt       2.80721449       3.24149123      22.29206778        3       0.00000000      -0.02089639      -0.01342951      -0.03568105
Pt       5.61442761       3.24149123      22.29206789        3       0.00000000      -0.00208465      -0.01044130      -0.07335223
Pt       8.42164155       3.24149130      22.29206812        3       0.00000000      -0.03127352      -0.02207845      -0.09514085
Pt       4.21082090       5.67260997      22.29206743        3       0.00000000      -0.00965115       0.00353566      -0.07735029
Pt       7.01803489       5.67261038      22.29206778        3       0.00000000      -0.01493972      -0.01437266      -0.07414744
Pt       9.82524818       5.67261058      22.29206804        3       0.00000000      -0.01396725      -0.02715738      -0.04594295
Pt      -0.00000057       1.62074568      24.58417368        2       0.00000000      -0.08640397      -0.04166680      -0.24851030
Pt       2.80721445       1.62074549      24.58417387        2       0.00000000       0.13376127       0.03919811      -0.03412038
Pt       5.61442780       1.62074538      24.58417368        2       0.00000000      -0.22558330       0.18943688       0.49625653
Pt       1.40360635       4.05186441      24.58417386        2       0.00000000       0.08535464       0.12979552      -0.03753042
Pt       4.21082088       4.05186391      24.58417389        2       0.00000000       0.01667044       0.02653737      -0.02414275
Pt       7.01803505       4.05186405      24.58417404        2       0.00000000       0.09629030      -0.02344704      -0.12630655
Pt       2.80721273       6.48298348      24.58417381        2       0.00000000       0.02104260      -0.28318095       0.51018208
Pt       5.61442805       6.48298330      24.58417394        2       0.00000000       0.00639546       0.13263761      -0.13970824
Pt       8.42164222       6.48298341      24.58417373        2       0.00000000       0.00597904       0.01683388      -0.02843154
Pt       0.05907498       0.06003721      26.93779267        1       0.00000000       0.00299348       0.00807728       0.00664131
Pt       2.86192968       0.05875219      26.91256904        1       0.00000000       0.02905845      -0.01841164       0.01258389
Pt       5.67031793       0.04470051      26.91068687        1       0.00000000       0.00657403       0.00593576      -0.00402768
Pt       1.38653354       2.44320807      26.84004353        1       0.00000000       0.00017536      -0.02452062       0.02719329
Pt       4.33583106       2.46871517      26.94777195        1       0.00000000       0.00092437      -0.01110436      -0.00484002
Pt       7.08414171       2.48844468      26.93893622        1       0.00000000       0.01745221      -0.03401189       0.00302811
Pt       2.89064482       4.96932874      26.95082883        1       0.00000000      -0.00480859       0.01543579      -0.00615505
Pt       5.73380887       4.95206057      26.87939660        1       0.00000000       0.01019251      -0.01691927      -0.00684851
Pt       8.47834421       4.91447271      26.91280994        1       0.00000000       0.02336023       0.00347879       0.00809606
O        3.43676947       3.61917920      28.58123541        0       0.50000000       0.02452608       0.00539902       0.04282834
H        4.19097445       4.04502247      29.04740682        0       0.50000000      -0.01523645       0.01011898      -0.02634840
