38
Lattice="8.421641763931781 0.0 0.0 4.2108208819658905 7.293355709136913 0.0 0.0 0.0 46.87624170604845" Properties=species:S:1:pos:R:3:tags:I:1:initial_magmoms:R:1:forces:R:3 charge=0 spin=0 energy=-196.55270906979405 free_energy=-196.55270906979405 stress="0.009690388105809689 1.393194997945102e-05 1.2691107258433476e-06 1.393194997945102e-05 0.008859861642122269 0.00023641646839678288 1.2691107258433476e-06 0.00023641646839678288 -0.0003084802010562271" pbc="T T T"
Pt      -0.00000001       0.00000015      19.95723445        4       0.00000000      -0.01271166       0.00251024      -0.02255473
Pt       2.80721394      -0.00000009      19.95723448        4       0.00000000       0.01320346      -0.00141740      -0.02281959
Pt       5.61442781      -0.00000017      19.95723450        4       0.00000000       0.00144593       0.00453267       0.00350410
Pt       1.40360720       2.43111836      19.95723436        4       0.00000000       0.00097790      -0.01551750       0.03386967
Pt       4.21082078       2.43111836      19.95723446        4       0.00000000      -0.00042280       0.00192744       0.01528437
Pt       7.01803484       2.43111844      19.95723431        4       0.00000000       0.00238165       0.00078228       0.01229375
Pt       2.80721414       4.86223727      19.95723413        4       0.00000000      -0.00102592       0.00982341       0.01270213
Pt       5.61442797       4.86223736      19.95723433        4       0.00000000      -0.00403399       0.01564350       0.01730479
Pt       8.42164142       4.86223724      19.95723439        4       0.00000000       0.00207964       0.01206017       0.01703475
Pt       1.40360727       0.81037261      22.29206790        3       0.00000000       0.00346475      -0.01312869       0.05356324
Pt       4.21082126       0.81037249      22.29206793        3       0.00000000      -0.00297740       0.01014277      -0.07287721
Pt       7.01803475       0.81037258      22.29206787        3       0.00000000       0.01356659       0.01134526      -0.07837116
Pt       2.80721449       3.24149123      22.29206778        3       0.00000000       0.01208687       0.03231322      -0.04775546
Pt       5.61442761       3.24149123      22.29206789        3       0.00000000       0.00582666       0.02767071      -0.03774422
Pt       8.42164155       3.24149130      22.29206812        3       0.00000000      -0.00934184       0.03043447      -0.04725377
Pt       4.21082090       5.67260997      22.29206743        3       0.00000000       0.00238309       0.04452336      -0.08838728
Pt       7.01803489       5.67261038      22.29206778        3       0.00000000       0.00494278       0.04108707      -0.09390252
Pt       9.82524818       5.67261058      22.29206804        3       0.00000000       0.00246769       0.02396918      -0.07538740
Pt      -0.00000057       1.62074568      24.58417368        2       0.00000000      -0.27353144       0.10511772       0.50089628
Pt       2.80721445       1.62074549      24.58417387        2       0.00000000       0.26649788       0.09086674       0.49407518
Pt       5.61442780       1.62074538      24.58417368        2       0.00000000      -0.00675682      -0.03727421      -0.03168700
Pt       1.40360635       4.05186441      24.58417386        2       0.00000000      -0.01205065      -0.02346559      -0.02158752
Pt       4.21082088       4.05186391      24.58417389        2       0.00000000      -0.06335810      -0.14181343      -0.03472078
Pt       7.01803505       4.05186405      24.58417404        2       0.00000000       0.04024701      -0.13516887      -0.03426853
Pt       2.80721273       6.48298348      24.58417381        2       0.00000000       0.08924572      -0.08367261      -0.12108090
Pt       5.61442805       6.48298330      24.58417394        2       0.00000000      -0.01732866       0.07665692      -0.23614295
Pt       8.42164222       6.48298341      24.58417373        2       0.00000000      -0.09809923      -0.08617241      -0.12842761
Pt      -0.00520787      -0.09770356      26.94149450        1       0.00000000       0.02220240      -0.02443914      -0.00119296
Pt       2.79122177      -0.10138851      26.93908419        1       0.00000000       0.01789767       0.00213398       0.00370675
Pt       5.60682075      -0.16401441      26.87933815        1       0.00000000      -0.00295334      -0.00315037      -0.00421032
Pt       1.40082065       2.33812409      26.91132360        1       0.00000000      -0.01064367       0.02157106       0.00115015
Pt       4.16571516       2.28837987      26.94802110        1       0.00000000      -0.00081624      -0.00064033       0.01255823
Pt       7.05535182       2.28875107      26.94286909        1       0.00000000       0.00189693       0.01671492       0.02064338
Pt       2.79849279       4.76625464      26.91652644        1       0.00000000       0.00960078      -0.00175732       0.00061043
Pt       5.60432234       4.85520065      26.84418382        1       0.00000000      -0.00050950       0.01924163       0.00643733
Pt       8.41089421       4.76892855      26.91573987        1       0.00000000       0.01386558      -0.00637666      -0.00269160
O        5.62536961       2.49627117      28.58059871        0       0.50000000      -0.00802095       0.01219687      -0.00447762
H        5.62732386       1.63159184      29.04676132        0       0.50000000      -0.00169868      -0.03927103       0.00190657
