38
Lattice="8.421641763931781 0.0 0.0 4.2108208819658905 7.293355709136913 0.0 0.0 0.0 46.87624170604845" Properties=species:S:1:pos:R:3:tags:I:1:initial_magmoms:R:1:forces:R:3 charge=0 spin=0 energy=-196.54989954525792 free_energy=-196.54989954525792 stress="0.009120302274823189 -0.0004091390874236822 -0.00020415461040101945 -0.0004091390874236822 0.009479306638240814 -7.700501737417653e-05 -0.00020415461040101945 -7.700501737417653e-05 -0.00028667933656834066" pbc="T T T"
Pt      -0.00000001       0.00000015      19.95723445        4       0.00000000       0.00427951      -0.01101458      -0.02058389
Pt       2.80721394      -0.00000009      19.95723448        4       0.00000000      -0.00446260      -0.00520087       0.01395089
Pt       5.61442781      -0.00000017      19.95723450        4       0.00000000       0.01478986       0.00885430       0.03264821
Pt       1.40360720       2.43111836      19.95723436        4       0.00000000      -0.00848325      -0.01013978       0.01760941
Pt       4.21082078       2.43111836      19.95723446        4       0.00000000       0.00096080      -0.00070850       0.01462572
Pt       7.01803484       2.43111844      19.95723431        4       0.00000000      -0.00359861       0.01224827      -0.02197456
Pt       2.80721414       4.86223727      19.95723413        4       0.00000000       0.00083905       0.00186608       0.01216759
Pt       5.61442797       4.86223736      19.95723433        4       0.00000000      -0.00177157      -0.00058044       0.00333161
Pt       8.42164142       4.86223724      19.95723439        4       0.00000000      -0.00811738      -0.00388756       0.01787686
Pt       1.40360727       0.81037261      22.29206790        3       0.00000000      -0.03131759      -0.02053813      -0.08722059
Pt       4.21082126       0.81037249      22.29206793        3       0.00000000      -0.02274720      -0.00562374      -0.04801451
Pt       7.01803475       0.81037258      22.29206787        3       0.00000000       0.01690075       0.01144989       0.05013155
Pt       2.80721449       3.24149123      22.29206778        3       0.00000000      -0.01789005      -0.00932219      -0.03264713
Pt       5.61442761       3.24149123      22.29206789        3       0.00000000       0.00212535      -0.00634760      -0.07260719
Pt       8.42164155       3.24149130      22.29206812        3       0.00000000      -0.02852249      -0.01966323      -0.09228796
Pt       4.21082090       5.67260997      22.29206743        3       0.00000000      -0.00586309       0.00560082      -0.07788302
Pt       7.01803489       5.67261038      22.29206778        3       0.00000000      -0.01120753      -0.01026311      -0.07377346
Pt       9.82524818       5.67261058      22.29206804        3       0.00000000      -0.00965076      -0.02206509      -0.04743676
Pt      -0.00000057       1.62074568      24.58417368        2       0.00000000      -0.08490386      -0.04402466      -0.24119760
Pt       2.80721445       1.62074549      24.58417387        2       0.00000000       0.11745211       0.02986866      -0.01184408
Pt       5.61442780       1.62074538      24.58417368        2       0.00000000      -0.23168162       0.16819304       0.47372767
Pt       1.40360635       4.05186441      24.58417386        2       0.00000000       0.07456648       0.10258418      -0.00916169
Pt       4.21082088       4.05186391      24.58417389        2       0.00000000       0.00422508       0.01403186      -0.02644547
Pt       7.01803505       4.05186405      24.58417404        2       0.00000000       0.10126839      -0.03861344      -0.13324167
Pt       2.80721273       6.48298348      24.58417381        2       0.00000000       0.00098797      -0.28537536       0.50709820
Pt       5.61442805       6.48298330      24.58417394        2       0.00000000       0.00216786       0.12802766      -0.14077754
Pt       8.42164222       6.48298341      24.58417373        2       0.00000000      -0.00741445       0.00083656      -0.01896839
Pt       0.04584603       0.04564114      26.93596744        1       0.00000000      -0.00504614       0.00416053       0.00552685
Pt       2.84806390       0.04512135      26.91533962        1       0.00000000       0.02185192      -0.03178252       0.00090326
Pt       5.64916065       0.03485072      26.90970211        1       0.00000000       0.03056534      -0.01172030      -0.00230915
Pt       1.37450690       2.42569037      26.84929230        1       0.00000000       0.00554085       0.00295654      -0.00361835
Pt       4.31133376       2.45519836      26.95018928        1       0.00000000       0.01640141       0.02071742       0.01180169
Pt       7.06651141       2.46901908      26.93688378        1       0.00000000       0.02792377      -0.01099839       0.00381373
Pt       2.87221834       4.95448788      26.95135462        1       0.00000000       0.01410807       0.01855732      -0.00153721
Pt       5.71846850       4.93385476      26.87183291        1       0.00000000       0.03238672       0.00917333       0.00244638
Pt       8.46896865       4.89538093      26.91417385        1       0.00000000      -0.00424818       0.01908052      -0.00310947
O        3.44055083       3.63653400      28.59609861        0       0.50000000      -0.00004357      -0.02057659      -0.03576254
H        4.21563232       4.07615440      29.01168165        0       0.50000000      -0.00237137       0.01023907       0.03474282
