38
Lattice="8.421641763931781 0.0 0.0 4.2108208819658905 7.293355709136913 0.0 0.0 0.0 46.87624170604845" Properties=species:S:1:pos:R:3:tags:I:1:initial_magmoms:R:1:forces:R:3 charge=0 spin=0 energy=-196.55151697689854 free_energy=-196.55151697689854 stress="0.009679433889687061 2.9433944291668013e-05 -3.085899379584589e-06 2.9433944291668013e-05 0.008830158971250057 0.00023467607388738543 -3.085899379584589e-06 0.00023467607388738543 -0.0003221457591280341" pbc="T T T"
Pt      -0.00000001       0.00000015      19.95723445        4       0.00000000      -0.01273783       0.00213473      -0.02261088
Pt       2.80721394      -0.00000009      19.95723448        4       0.00000000       0.01311202      -0.00197772      -0.02284387
Pt       5.61442781      -0.00000017      19.95723450        4       0.00000000       0.00168199       0.00366261       0.00356165
Pt       1.40360720       2.43111836      19.95723436        4       0.00000000       0.00107929      -0.01656541       0.03346004
Pt       4.21082078       2.43111836      19.95723446        4       0.00000000      -0.00038720       0.00127916       0.01497144
Pt       7.01803484       2.43111844      19.95723431        4       0.00000000       0.00299851       0.00010025       0.01204609
Pt       2.80721414       4.86223727      19.95723413        4       0.00000000      -0.00099494       0.00868306       0.01294664
Pt       5.61442797       4.86223736      19.95723433        4       0.00000000      -0.00382770       0.01496476       0.01719107
Pt       8.42164142       4.86223724      19.95723439        4       0.00000000       0.00202775       0.01159560       0.01708042
Pt       1.40360727       0.81037261      22.29206790        3       0.00000000       0.00294161      -0.01567436       0.05797322
Pt       4.21082126       0.81037249      22.29206793        3       0.00000000      -0.00217485       0.00763598      -0.07389095
Pt       7.01803475       0.81037258      22.29206787        3       0.00000000       0.01296921       0.00886534      -0.07851441
Pt       2.80721449       3.24149123      22.29206778        3       0.00000000       0.01224931       0.02952264      -0.04816211
Pt       5.61442761       3.24149123      22.29206789        3       0.00000000       0.00671052       0.02558732      -0.03884428
Pt       8.42164155       3.24149130      22.29206812        3       0.00000000      -0.00916375       0.02869114      -0.04867736
Pt       4.21082090       5.67260997      22.29206743        3       0.00000000       0.00195417       0.04142877      -0.08810478
Pt       7.01803489       5.67261038      22.29206778        3       0.00000000       0.00555835       0.03926110      -0.09258297
Pt       9.82524818       5.67261058      22.29206804        3       0.00000000       0.00249618       0.02125397      -0.07663897
Pt      -0.00000057       1.62074568      24.58417368        2       0.00000000      -0.26343605       0.10606931       0.50301212
Pt       2.80721445       1.62074549      24.58417387        2       0.00000000       0.25571057       0.09998084       0.49172935
Pt       5.61442780       1.62074538      24.58417368        2       0.00000000      -0.00508745      -0.03628826      -0.04908565
Pt       1.40360635       4.05186441      24.58417386        2       0.00000000      -0.01334543      -0.01712707      -0.01802048
Pt       4.21082088       4.05186391      24.58417389        2       0.00000000      -0.07011947      -0.12758970      -0.03391415
Pt       7.01803505       4.05186405      24.58417404        2       0.00000000       0.04099800      -0.12863748      -0.04057787
Pt       2.80721273       6.48298348      24.58417381        2       0.00000000       0.09384493      -0.07640301      -0.11560994
Pt       5.61442805       6.48298330      24.58417394        2       0.00000000      -0.01415949       0.09258078      -0.24103059
Pt       8.42164222       6.48298341      24.58417373        2       0.00000000      -0.10524505      -0.08387522      -0.12654801
Pt      -0.00128567      -0.09292301      26.94477328        1       0.00000000      -0.00183929       0.00906990      -0.01276920
Pt       2.79223423      -0.08552429      26.94188769        1       0.00000000       0.01500815      -0.01370427      -0.00797826
Pt       5.60394081      -0.15285804      26.87589664        1       0.00000000       0.00538583      -0.00943326       0.00612870
Pt       1.40037672       2.35053887      26.91348302        1       0.00000000      -0.00934997       0.00886370      -0.00825360
Pt       4.16952818       2.30592795      26.94092099        1       0.00000000      -0.02219575      -0.02523527       0.02927265
Pt       7.05501542       2.29598014      26.93740141        1       0.00000000       0.00875592       0.00453494       0.04124599
Pt       2.79278469       4.77961332      26.91833895        1       0.00000000       0.02477495      -0.01271855      -0.00975930
Pt       5.60530509       4.86759957      26.84125188        1       0.00000000      -0.00358970       0.00942317       0.01990830
Pt       8.40609725       4.77565704      26.91648337        1       0.00000000       0.03083494       0.01219617      -0.00648393
O        5.62340477       2.50961611      28.57578661        0       0.50000000      -0.00681394       0.01641980       0.01242329
H        5.61950542       1.64933689      29.05011112        0       0.50000000       0.00337566      -0.03857559      -0.01204929
