38
Lattice="8.421641763931781 0.0 0.0 4.2108208819658905 7.293355709136913 0.0 0.0 0.0 46.87624170604845" Properties=species:S:1:pos:R:3:tags:I:1:initial_magmoms:R:1:forces:R:3 charge=0 spin=0 energy=-196.55134722287022 free_energy=-196.55134722287022 stress="0.009093156084418297 -0.00039751737494952977 -0.00020702612528111786 -0.00039751737494952977 0.009427191689610481 -8.136653195833787e-05 -0.00020702612528111786 -8.136653195833787e-05 -0.00032620757701806724" pbc="T T T"
Pt      -0.00000001       0.00000015      19.95723445        4       0.00000000       0.00499089      -0.01256087      -0.02258495
Pt       2.80721394      -0.00000009      19.95723448        4       0.00000000      -0.00575594      -0.00675427       0.01318919
Pt       5.61442781      -0.00000017      19.95723450        4       0.00000000       0.01494521       0.00823110       0.03339351
Pt       1.40360720       2.43111836      19.95723436        4       0.00000000      -0.00951939      -0.01172617       0.01739927
Pt       4.21082078       2.43111836      19.95723446        4       0.00000000       0.00047543      -0.00157279       0.01481079
Pt       7.01803484       2.43111844      19.95723431        4       0.00000000      -0.00402696       0.01164000      -0.02203658
Pt       2.80721414       4.86223727      19.95723413        4       0.00000000       0.00027760       0.00114887       0.01267357
Pt       5.61442797       4.86223736      19.95723433        4       0.00000000      -0.00286152      -0.00135312       0.00328222
Pt       8.42164142       4.86223724      19.95723439        4       0.00000000      -0.00939410      -0.00494665       0.01728823
Pt       1.40360727       0.81037261      22.29206790        3       0.00000000      -0.03372888      -0.02501063      -0.09035097
Pt       4.21082126       0.81037249      22.29206793        3       0.00000000      -0.02739760      -0.00999848      -0.04883567
Pt       7.01803475       0.81037258      22.29206787        3       0.00000000       0.01605530       0.00724526       0.05355304
Pt       2.80721449       3.24149123      22.29206778        3       0.00000000      -0.02090287      -0.01342493      -0.03567910
Pt       5.61442761       3.24149123      22.29206789        3       0.00000000      -0.00209167      -0.01044172      -0.07335802
Pt       8.42164155       3.24149130      22.29206812        3       0.00000000      -0.03128474      -0.02207310      -0.09512847
Pt       4.21082090       5.67260997      22.29206743        3       0.00000000      -0.00966160       0.00353610      -0.07735049
Pt       7.01803489       5.67261038      22.29206778        3       0.00000000      -0.01494401      -0.01437037      -0.07414963
Pt       9.82524818       5.67261058      22.29206804        3       0.00000000      -0.01397535      -0.02715230      -0.04596864
Pt      -0.00000057       1.62074568      24.58417368        2       0.00000000      -0.08638354      -0.04166459      -0.24871828
Pt       2.80721445       1.62074549      24.58417387        2       0.00000000       0.13371830       0.03919142      -0.03401984
Pt       5.61442780       1.62074538      24.58417368        2       0.00000000      -0.22553891       0.18941714       0.49624044
Pt       1.40360635       4.05186441      24.58417386        2       0.00000000       0.08540219       0.12973014      -0.03740757
Pt       4.21082088       4.05186391      24.58417389        2       0.00000000       0.01666361       0.02655044      -0.02413190
Pt       7.01803505       4.05186405      24.58417404        2       0.00000000       0.09632741      -0.02345981      -0.12634525
Pt       2.80721273       6.48298348      24.58417381        2       0.00000000       0.02107253      -0.28319135       0.51029122
Pt       5.61442805       6.48298330      24.58417394        2       0.00000000       0.00641034       0.13262878      -0.13971296
Pt       8.42164222       6.48298341      24.58417373        2       0.00000000       0.00599417       0.01682031      -0.02838064
Pt       0.05914973       0.06010727      26.93779262        1       0.00000000       0.00264970       0.00745109       0.00671618
Pt       2.86194668       0.05871934      26.91259206        1       0.00000000       0.02918374      -0.01830071       0.01250713
Pt       5.67033422       0.04471657      26.91069818        1       0.00000000       0.00662827       0.00582769      -0.00410143
Pt       1.38648693       2.44316111      26.84008287        1       0.00000000       0.00082833      -0.02413439       0.02710253
Pt       4.33583445       2.46869747      26.94774569        1       0.00000000       0.00104401      -0.01096649      -0.00474530
Pt       7.08423096       2.48843101      26.93893226        1       0.00000000       0.01681464      -0.03392978       0.00311146
Pt       2.89067850       4.96934790      26.95083774        1       0.00000000      -0.00473977       0.01552868      -0.00623056
Pt       5.73384036       4.95204252      26.87938375        1       0.00000000       0.01010881      -0.01691745      -0.00681317
Pt       8.47838395       4.91445738      26.91281805        1       0.00000000       0.02336665       0.00358935       0.00807101
O        3.43678525       3.61922697      28.58122215        0       0.50000000       0.02485301       0.00541604       0.04301195
H        4.19102585       4.04501940      29.04740350        0       0.50000000      -0.01560337       0.00999762      -0.02659225
