38
Lattice="8.421641763931781 0.0 0.0 4.2108208819658905 7.293355709136913 0.0 0.0 0.0 46.87624170604845" Properties=species:S:1:pos:R:3:tags:I:1:initial_magmoms:R:1:forces:R:3 charge=0 spin=0 energy=-194.61144396359288 free_energy=-194.61144396359288 stress="0.009887179359793663 0.00015180787886492908 -5.511048584594391e-06 0.00015180787886492908 0.00972632598131895 -4.5153856262913905e-06 -5.511048584594391e-06 -4.5153856262913905e-06 -0.0001257382973562926" pbc="T T T"
Pt      -0.00000001       0.00000015      19.95723445        4       0.00000000      -0.00334537       0.00406535      -0.00273716
Pt       2.80721394      -0.00000009      19.95723448        4       0.00000000       0.00027113      -0.00091679       0.01413401
Pt       5.61442781      -0.00000017      19.95723450        4       0.00000000       0.00238642       0.00153506       0.00958727
Pt       1.40360720       2.43111836      19.95723436        4       0.00000000      -0.00365028      -0.00384923       0.01149772
Pt       4.21082078       2.43111836      19.95723446        4       0.00000000       0.00284006      -0.00099931       0.01179119
Pt       7.01803484       2.43111844      19.95723431        4       0.00000000       0.00233121      -0.00464786      -0.00283277
Pt       2.80721414       4.86223727      19.95723413        4       0.00000000      -0.00162767       0.00316185       0.01059143
Pt       5.61442797       4.86223736      19.95723433        4       0.00000000       0.00133891       0.00122932       0.01233517
Pt       8.42164142       4.86223724      19.95723439        4       0.00000000      -0.00114297       0.00043432       0.01303088
Pt       1.40360727       0.81037261      22.29206790        3       0.00000000       0.00102969      -0.00601816      -0.02138181
Pt       4.21082126       0.81037249      22.29206793        3       0.00000000      -0.00834166      -0.00044492      -0.04074330
Pt       7.01803475       0.81037258      22.29206787        3       0.00000000      -0.00168149      -0.00047826       0.02729122
Pt       2.80721449       3.24149123      22.29206778        3       0.00000000       0.00316541       0.00413995      -0.03434097
Pt       5.61442761       3.24149123      22.29206789        3       0.00000000      -0.00077016       0.00780482      -0.04154332
Pt       8.42164155       3.24149130      22.29206812        3       0.00000000      -0.00238506       0.00445387      -0.02404692
Pt       4.21082090       5.67260997      22.29206743        3       0.00000000       0.00547227      -0.00548001      -0.04185961
Pt       7.01803489       5.67261038      22.29206778        3       0.00000000       0.00123934       0.00238568      -0.04191598
Pt       9.82524818       5.67261058      22.29206804        3       0.00000000      -0.00396188      -0.00990100      -0.03961607
Pt      -0.00000057       1.62074568      24.58417368        2       0.00000000       0.02197271       0.01118144       0.02695623
Pt       2.80721445       1.62074549      24.58417387        2       0.00000000      -0.01090798      -0.00105088       0.01967343
Pt       5.61442780       1.62074538      24.58417368        2       0.00000000       0.02285111      -0.00321972      -0.02082269
Pt       1.40360635       4.05186441      24.58417386        2       0.00000000      -0.01101711      -0.01627105       0.02429432
Pt       4.21082088       4.05186391      24.58417389        2       0.00000000      -0.00107184      -0.00132608       0.04329005
Pt       7.01803505       4.05186405      24.58417404        2       0.00000000      -0.01704143       0.00617571       0.02524998
Pt       2.80721273       6.48298348      24.58417381        2       0.00000000      -0.00020415       0.01922930      -0.02340479
Pt       5.61442805       6.48298330      24.58417394        2       0.00000000      -0.00393589      -0.01238345       0.02462726
Pt       8.42164222       6.48298341      24.58417373        2       0.00000000       0.00025004      -0.00282730       0.01507413
Pt       0.00255523       0.00551065      26.91671305        1       0.00000000       0.02074513       0.00749241       0.01043805
Pt       2.80562795      -0.00632667      26.91592559        1       0.00000000      -0.02110544      -0.00644147       0.00426861
Pt       5.61380249      -0.00056501      26.91716556        1       0.00000000       0.00132242       0.00039151       0.02313948
Pt       1.39457234       2.42626904      26.92069021        1       0.00000000       0.03948050       0.02482538       0.00048397
Pt       4.23373962       2.38911633      26.90584509        1       0.00000000      -0.00199275       0.00072359      -0.00344706
Pt       7.02510930       2.43017130      26.91578337        1       0.00000000       0.01612293       0.01265321       0.00858594
Pt       2.78371867       4.90414764      26.90615910        1       0.00000000       0.00273804      -0.00065992      -0.00098831
Pt       5.62325087       4.86731681      26.92027494        1       0.00000000      -0.04107215      -0.02519991      -0.00649139
Pt       8.41438933       4.86412266      26.91479687        1       0.00000000      -0.01740430      -0.01448415       0.00188871
O        3.50685009       3.64567255      29.43507513        0       0.50000000      -0.02606494      -0.01181474       0.00946545
H        3.51215214       3.64832066      28.44130964        0       0.50000000       0.03316708       0.01653164      -0.00152222
