38
Lattice="8.421641763931781 0.0 0.0 4.2108208819658905 7.293355709136913 0.0 0.0 0.0 46.87624170604845" Properties=species:S:1:pos:R:3:tags:I:1:initial_magmoms:R:1:forces:R:3 charge=0 spin=0 energy=-196.55131861264073 free_energy=-196.55131861264073 stress="0.009092791005969048 -0.0003975322761107236 -0.00020725988724734634 -0.0003975322761107236 0.009427239187061787 -8.155032264767215e-05 -0.00020725988724734634 -8.155032264767215e-05 -0.00032672114321030676" pbc="T T T"
Pt      -0.00000001       0.00000015      19.95723445        4       0.00000000       0.00500080      -0.01256672      -0.02259262
Pt       2.80721394      -0.00000009      19.95723448        4       0.00000000      -0.00574103      -0.00675886       0.01318841
Pt       5.61442781      -0.00000017      19.95723450        4       0.00000000       0.01493828       0.00822545       0.03338780
Pt       1.40360720       2.43111836      19.95723436        4       0.00000000      -0.00951576      -0.01172991       0.01740057
Pt       4.21082078       2.43111836      19.95723446        4       0.00000000       0.00048707      -0.00156950       0.01480821
Pt       7.01803484       2.43111844      19.95723431        4       0.00000000      -0.00402339       0.01162756      -0.02203035
Pt       2.80721414       4.86223727      19.95723413        4       0.00000000       0.00028941       0.00114720       0.01266807
Pt       5.61442797       4.86223736      19.95723433        4       0.00000000      -0.00286148      -0.00135315       0.00327758
Pt       8.42164142       4.86223724      19.95723439        4       0.00000000      -0.00938138      -0.00493377       0.01729363
Pt       1.40360727       0.81037261      22.29206790        3       0.00000000      -0.03371726      -0.02502536      -0.09039935
Pt       4.21082126       0.81037249      22.29206793        3       0.00000000      -0.02739249      -0.01000512      -0.04877156
Pt       7.01803475       0.81037258      22.29206787        3       0.00000000       0.01609866       0.00721257       0.05354619
Pt       2.80721449       3.24149123      22.29206778        3       0.00000000      -0.02088080      -0.01343807      -0.03569299
Pt       5.61442761       3.24149123      22.29206789        3       0.00000000      -0.00206968      -0.01043761      -0.07333177
Pt       8.42164155       3.24149130      22.29206812        3       0.00000000      -0.03124935      -0.02209141      -0.09516250
Pt       4.21082090       5.67260997      22.29206743        3       0.00000000      -0.00962609       0.00353262      -0.07734896
Pt       7.01803489       5.67261038      22.29206778        3       0.00000000      -0.01492952      -0.01437505      -0.07414796
Pt       9.82524818       5.67261058      22.29206804        3       0.00000000      -0.01395085      -0.02717423      -0.04589798
Pt      -0.00000057       1.62074568      24.58417368        2       0.00000000      -0.08651656      -0.04169886      -0.24821661
Pt       2.80721445       1.62074549      24.58417387        2       0.00000000       0.13392144       0.03920565      -0.03436191
Pt       5.61442780       1.62074538      24.58417368        2       0.00000000      -0.22568631       0.18945554       0.49637938
Pt       1.40360635       4.05186441      24.58417386        2       0.00000000       0.08527290       0.12999728      -0.03786766
Pt       4.21082088       4.05186391      24.58417389        2       0.00000000       0.01668798       0.02647419      -0.02413959
Pt       7.01803505       4.05186405      24.58417404        2       0.00000000       0.09619728      -0.02345992      -0.12634297
Pt       2.80721273       6.48298348      24.58417381        2       0.00000000       0.02096061      -0.28309217       0.50996995
Pt       5.61442805       6.48298330      24.58417394        2       0.00000000       0.00632442       0.13265930      -0.13978627
Pt       8.42164222       6.48298341      24.58417373        2       0.00000000       0.00597021       0.01687822      -0.02847583
Pt       0.05893943       0.05992862      26.93779692        1       0.00000000       0.00349459       0.00915357       0.00650978
Pt       2.86183803       0.05880217      26.91251361        1       0.00000000       0.02912833      -0.01852687       0.01277857
Pt       5.67027389       0.04466221      26.91068895        1       0.00000000       0.00642384       0.00619120      -0.00400887
Pt       1.38662013       2.44330938      26.83992774        1       0.00000000      -0.00098827      -0.02523778       0.02762509
Pt       4.33581326       2.46873801      26.94783952        1       0.00000000       0.00072284      -0.01127972      -0.00503194
Pt       7.08397359       2.48848112      26.93894691        1       0.00000000       0.01851236      -0.03429207       0.00287906
Pt       2.89058409       4.96932341      26.95078270        1       0.00000000      -0.00494553       0.01504029      -0.00580902
Pt       5.73375920       4.95209664      26.87940931        1       0.00000000       0.01010811      -0.01700332      -0.00680826
Pt       8.47821676       4.91446768      26.91278307        1       0.00000000       0.02363431       0.00348790       0.00817515
O        3.43675363       3.61907533      28.58127908        0       0.50000000       0.02366391       0.00544831       0.04223283
H        4.19083956       4.04506501      29.04746013        0       0.50000000      -0.01436151       0.01031239      -0.02589541
