38
Lattice="8.421641763931781 0.0 0.0 4.2108208819658905 7.293355709136913 0.0 0.0 0.0 46.87624170604845" Properties=species:S:1:pos:R:3:tags:I:1:initial_magmoms:R:1:forces:R:3 charge=0 spin=0 energy=-196.55266329342686 free_energy=-196.55266329342686 stress="0.009688508696854115 1.3697155736736022e-05 8.501995125698159e-07 1.3697155736736022e-05 0.00885791890323162 0.00023579255503136665 8.501995125698159e-07 0.00023579255503136665 -0.00030997846624813974" pbc="T T T"
Pt      -0.00000001       0.00000015      19.95723445        4       0.00000000      -0.01271364       0.00248901      -0.02256510
Pt       2.80721394      -0.00000009      19.95723448        4       0.00000000       0.01319145      -0.00142689      -0.02280757
Pt       5.61442781      -0.00000017      19.95723450        4       0.00000000       0.00145170       0.00450874       0.00350279
Pt       1.40360720       2.43111836      19.95723436        4       0.00000000       0.00097789      -0.01557194       0.03386100
Pt       4.21082078       2.43111836      19.95723446        4       0.00000000      -0.00040985       0.00189373       0.01528651
Pt       7.01803484       2.43111844      19.95723431        4       0.00000000       0.00240173       0.00074507       0.01229299
Pt       2.80721414       4.86223727      19.95723413        4       0.00000000      -0.00100912       0.00979751       0.01269956
Pt       5.61442797       4.86223736      19.95723433        4       0.00000000      -0.00403231       0.01562039       0.01730767
Pt       8.42164142       4.86223724      19.95723439        4       0.00000000       0.00209344       0.01203199       0.01703850
Pt       1.40360727       0.81037261      22.29206790        3       0.00000000       0.00342219      -0.01326822       0.05372393
Pt       4.21082126       0.81037249      22.29206793        3       0.00000000      -0.00294841       0.01004334      -0.07283001
Pt       7.01803475       0.81037258      22.29206787        3       0.00000000       0.01356396       0.01123917      -0.07837129
Pt       2.80721449       3.24149123      22.29206778        3       0.00000000       0.01211454       0.03223246      -0.04778847
Pt       5.61442761       3.24149123      22.29206789        3       0.00000000       0.00585903       0.02759704      -0.03773032
Pt       8.42164155       3.24149130      22.29206812        3       0.00000000      -0.00931446       0.03035717      -0.04725511
Pt       4.21082090       5.67260997      22.29206743        3       0.00000000       0.00241051       0.04443474      -0.08842327
Pt       7.01803489       5.67261038      22.29206778        3       0.00000000       0.00497968       0.04099927      -0.09396979
Pt       9.82524818       5.67261058      22.29206804        3       0.00000000       0.00249968       0.02387253      -0.07542305
Pt      -0.00000057       1.62074568      24.58417368        2       0.00000000      -0.27341911       0.10535282       0.50042069
Pt       2.80721445       1.62074549      24.58417387        2       0.00000000       0.26657090       0.09118278       0.49391994
Pt       5.61442780       1.62074538      24.58417368        2       0.00000000      -0.00693950      -0.03717368      -0.03162685
Pt       1.40360635       4.05186441      24.58417386        2       0.00000000      -0.01218447      -0.02330025      -0.02200858
Pt       4.21082088       4.05186391      24.58417389        2       0.00000000      -0.06351019      -0.14175767      -0.03480408
Pt       7.01803505       4.05186405      24.58417404        2       0.00000000       0.04011600      -0.13517921      -0.03486069
Pt       2.80721273       6.48298348      24.58417381        2       0.00000000       0.08892858      -0.08326120      -0.12105384
Pt       5.61442805       6.48298330      24.58417394        2       0.00000000      -0.01755784       0.07728247      -0.23706305
Pt       8.42164222       6.48298341      24.58417373        2       0.00000000      -0.09793476      -0.08566943      -0.12824461
Pt      -0.00534195      -0.09721955      26.94145137        1       0.00000000       0.02223869      -0.02504986      -0.00090621
Pt       2.79097217      -0.10098210      26.93902630        1       0.00000000       0.01899921       0.00252669       0.00401462
Pt       5.60674564      -0.16362708      26.87945567        1       0.00000000      -0.00332746      -0.00291225      -0.00481095
Pt       1.40084093       2.33850126      26.91123720        1       0.00000000      -0.01102545       0.02177960       0.00149444
Pt       4.16559197       2.28878229      26.94801742        1       0.00000000      -0.00074707      -0.00130215       0.01222639
Pt       7.05538935       2.28909001      26.94274155        1       0.00000000       0.00127090       0.01674202       0.02100735
Pt       2.79829275       4.76674761      26.91638465        1       0.00000000       0.01017388      -0.00221803       0.00094979
Pt       5.60431217       4.85572611      26.84396486        1       0.00000000      -0.00127483       0.01849802       0.00736620
Pt       8.41068069       4.76933296      26.91558612        1       0.00000000       0.01447217      -0.00635246      -0.00220856
O        5.62509311       2.49704370      28.58027784        0       0.50000000      -0.00746984       0.00979681      -0.00139544
H        5.62719521       1.63283529      29.04746930        0       0.50000000      -0.00191808      -0.03657997      -0.00096548
