38
Lattice="8.421641763931781 0.0 0.0 4.2108208819658905 7.293355709136913 0.0 0.0 0.0 46.87624170604845" Properties=species:S:1:pos:R:3:tags:I:1:initial_magmoms:R:1:forces:R:3 charge=0 spin=0 energy=-194.6114458709415 free_energy=-194.6114458709415 stress="0.009887181222438812 0.00015180761693045497 -5.511851668416057e-06 0.00015180761693045497 0.009726330637931824 -4.514541615208145e-06 -5.511851668416057e-06 -4.514541615208145e-06 -0.00012573828280437738" pbc="T T T"
Pt      -0.00000001       0.00000015      19.95723445        4       0.00000000      -0.00334529       0.00406519      -0.00273704
Pt       2.80721394      -0.00000009      19.95723448        4       0.00000000       0.00027120      -0.00091679       0.01413399
Pt       5.61442781      -0.00000017      19.95723450        4       0.00000000       0.00238647       0.00153501       0.00958744
Pt       1.40360720       2.43111836      19.95723436        4       0.00000000      -0.00365016      -0.00384927       0.01149757
Pt       4.21082078       2.43111836      19.95723446        4       0.00000000       0.00284010      -0.00099939       0.01179138
Pt       7.01803484       2.43111844      19.95723431        4       0.00000000       0.00233118      -0.00464778      -0.00283286
Pt       2.80721414       4.86223727      19.95723413        4       0.00000000      -0.00162770       0.00316185       0.01059128
Pt       5.61442797       4.86223736      19.95723433        4       0.00000000       0.00133899       0.00122933       0.01233536
Pt       8.42164142       4.86223724      19.95723439        4       0.00000000      -0.00114295       0.00043427       0.01303096
Pt       1.40360727       0.81037261      22.29206790        3       0.00000000       0.00102978      -0.00601813      -0.02138165
Pt       4.21082126       0.81037249      22.29206793        3       0.00000000      -0.00834177      -0.00044460      -0.04074280
Pt       7.01803475       0.81037258      22.29206787        3       0.00000000      -0.00168147      -0.00047823       0.02729098
Pt       2.80721449       3.24149123      22.29206778        3       0.00000000       0.00316546       0.00413982      -0.03434097
Pt       5.61442761       3.24149123      22.29206789        3       0.00000000      -0.00077025       0.00780465      -0.04154338
Pt       8.42164155       3.24149130      22.29206812        3       0.00000000      -0.00238505       0.00445394      -0.02404696
Pt       4.21082090       5.67260997      22.29206743        3       0.00000000       0.00547234      -0.00547973      -0.04185962
Pt       7.01803489       5.67261038      22.29206778        3       0.00000000       0.00123950       0.00238580      -0.04191602
Pt       9.82524818       5.67261058      22.29206804        3       0.00000000      -0.00396203      -0.00990076      -0.03961606
Pt      -0.00000057       1.62074568      24.58417368        2       0.00000000       0.02197250       0.01118115       0.02695538
Pt       2.80721445       1.62074549      24.58417387        2       0.00000000      -0.01090865      -0.00105096       0.01967428
Pt       5.61442780       1.62074538      24.58417368        2       0.00000000       0.02285066      -0.00321961      -0.02082128
Pt       1.40360635       4.05186441      24.58417386        2       0.00000000      -0.01101714      -0.01627099       0.02429402
Pt       4.21082088       4.05186391      24.58417389        2       0.00000000      -0.00107163      -0.00132555       0.04328885
Pt       7.01803505       4.05186405      24.58417404        2       0.00000000      -0.01704152       0.00617583       0.02524981
Pt       2.80721273       6.48298348      24.58417381        2       0.00000000      -0.00020420       0.01922881      -0.02340446
Pt       5.61442805       6.48298330      24.58417394        2       0.00000000      -0.00393581      -0.01238342       0.02462729
Pt       8.42164222       6.48298341      24.58417373        2       0.00000000       0.00024986      -0.00282739       0.01507441
Pt       0.00255503       0.00551053      26.91671311        1       0.00000000       0.02074425       0.00749271       0.01043833
Pt       2.80562808      -0.00632654      26.91592562        1       0.00000000      -0.02110547      -0.00644045       0.00426801
Pt       5.61380251      -0.00056504      26.91716548        1       0.00000000       0.00132159       0.00039214       0.02313876
Pt       1.39457232       2.42626902      26.92069019        1       0.00000000       0.03948376       0.02482495       0.00048357
Pt       4.23373933       2.38911703      26.90584533        1       0.00000000      -0.00198991       0.00071835      -0.00344709
Pt       7.02510906       2.43017127      26.91578340        1       0.00000000       0.01611959       0.01265293       0.00858609
Pt       2.78371906       4.90414700      26.90615930        1       0.00000000       0.00273681      -0.00065725      -0.00098920
Pt       5.62325090       4.86731683      26.92027495        1       0.00000000      -0.04107117      -0.02519917      -0.00649188
Pt       8.41438953       4.86412267      26.91479686        1       0.00000000      -0.01740406      -0.01448365       0.00188895
O        3.50685020       3.64567260      29.43507613        0       0.50000000      -0.02606374      -0.01181512       0.00946698
H        3.51215200       3.64832057      28.44130827        0       0.50000000       0.03316583       0.01653166      -0.00152226
