38
Lattice="8.421641763931781 0.0 0.0 4.2108208819658905 7.293355709136913 0.0 0.0 0.0 46.87624170604845" Properties=species:S:1:pos:R:3:tags:I:1:initial_magmoms:R:1:forces:R:3 charge=0 spin=0 energy=-196.54989954525792 free_energy=-196.54989954525792 stress="0.009120382368564606 -0.00040910326060839 -0.00020410858269315213 -0.00040910326060839 0.009479320608079433 -7.698845729464665e-05 -0.00020410858269315213 -7.698845729464665e-05 -0.00028665197896771133" pbc="T T T"
Pt      -0.00000001       0.00000015      19.95723445        4       0.00000000       0.00427953      -0.01101504      -0.02058434
Pt       2.80721394      -0.00000009      19.95723448        4       0.00000000      -0.00446317      -0.00520113       0.01395066
Pt       5.61442781      -0.00000017      19.95723450        4       0.00000000       0.01479002       0.00885411       0.03264834
Pt       1.40360720       2.43111836      19.95723436        4       0.00000000      -0.00848339      -0.01013984       0.01760913
Pt       4.21082078       2.43111836      19.95723446        4       0.00000000       0.00095964      -0.00070825       0.01462585
Pt       7.01803484       2.43111844      19.95723431        4       0.00000000      -0.00359889       0.01224771      -0.02197409
Pt       2.80721414       4.86223727      19.95723413        4       0.00000000       0.00083890       0.00186552       0.01216786
Pt       5.61442797       4.86223736      19.95723433        4       0.00000000      -0.00177163      -0.00058044       0.00333129
Pt       8.42164142       4.86223724      19.95723439        4       0.00000000      -0.00811831      -0.00388804       0.01787627
Pt       1.40360727       0.81037261      22.29206790        3       0.00000000      -0.03131973      -0.02053844      -0.08721965
Pt       4.21082126       0.81037249      22.29206793        3       0.00000000      -0.02274817      -0.00562378      -0.04801600
Pt       7.01803475       0.81037258      22.29206787        3       0.00000000       0.01689976       0.01144786       0.05012913
Pt       2.80721449       3.24149123      22.29206778        3       0.00000000      -0.01789222      -0.00932172      -0.03264315
Pt       5.61442761       3.24149123      22.29206789        3       0.00000000       0.00212377      -0.00634892      -0.07260863
Pt       8.42164155       3.24149130      22.29206812        3       0.00000000      -0.02852540      -0.01966404      -0.09228768
Pt       4.21082090       5.67260997      22.29206743        3       0.00000000      -0.00586542       0.00560081      -0.07788405
Pt       7.01803489       5.67261038      22.29206778        3       0.00000000      -0.01120906      -0.01026349      -0.07377113
Pt       9.82524818       5.67261058      22.29206804        3       0.00000000      -0.00965341      -0.02206541      -0.04743957
Pt      -0.00000057       1.62074568      24.58417368        2       0.00000000      -0.08489632      -0.04402101      -0.24120845
Pt       2.80721445       1.62074549      24.58417387        2       0.00000000       0.11745796       0.02987252      -0.01183284
Pt       5.61442780       1.62074538      24.58417368        2       0.00000000      -0.23168512       0.16819920       0.47373664
Pt       1.40360635       4.05186441      24.58417386        2       0.00000000       0.07458372       0.10258325      -0.00915553
Pt       4.21082088       4.05186391      24.58417389        2       0.00000000       0.00421551       0.01402742      -0.02643975
Pt       7.01803505       4.05186405      24.58417404        2       0.00000000       0.10128296      -0.03860977      -0.13325854
Pt       2.80721273       6.48298348      24.58417381        2       0.00000000       0.00099809      -0.28537410       0.50711393
Pt       5.61442805       6.48298330      24.58417394        2       0.00000000       0.00217441       0.12803292      -0.14079183
Pt       8.42164222       6.48298341      24.58417373        2       0.00000000      -0.00741553       0.00083176      -0.01895940
Pt       0.04586284       0.04565023      26.93596594        1       0.00000000      -0.00509623       0.00412705       0.00553226
Pt       2.84806666       0.04512060      26.91534325        1       0.00000000       0.02188063      -0.03178276       0.00089521
Pt       5.64916155       0.03485324      26.90969994        1       0.00000000       0.03058774      -0.01172264      -0.00231036
Pt       1.37451042       2.42569163      26.84929690        1       0.00000000       0.00557935       0.00297463      -0.00362486
Pt       4.31133781       2.45519990      26.95019603        1       0.00000000       0.01641471       0.02071552       0.01178021
Pt       7.06652105       2.46902355      26.93687975        1       0.00000000       0.02789612      -0.01101504       0.00382891
Pt       2.87223117       4.95450298      26.95136204        1       0.00000000       0.01408894       0.01852676      -0.00155901
Pt       5.71847299       4.93385160      26.87182588        1       0.00000000       0.03240324       0.00918944       0.00248014
Pt       8.46898494       4.89537518      26.91417464        1       0.00000000      -0.00428073       0.01911956      -0.00311600
O        3.44056579       3.63653223      28.59609842        0       0.50000000       0.00015278      -0.02043336      -0.03563226
H        4.21564762       4.07615958      29.01168933        0       0.50000000      -0.00258515       0.01010114       0.03461140
