38
Lattice="8.421641763931781 0.0 0.0 4.2108208819658905 7.293355709136913 0.0 0.0 0.0 46.87624170604845" Properties=species:S:1:pos:R:3:tags:I:1:initial_magmoms:R:1:forces:R:3 charge=0 spin=0 energy=-196.55281206662022 free_energy=-196.55281206662022 stress="0.009692186489701271 1.3266737369121984e-05 2.161075599360629e-06 1.3266737369121984e-05 0.008869536221027374 0.00023219629656523466 2.161075599360629e-06 0.00023219629656523466 -0.00030926152248866856" pbc="T T T"
Pt      -0.00000001       0.00000015      19.95723445        4       0.00000000      -0.01263152       0.00254923      -0.02236552
Pt       2.80721394      -0.00000009      19.95723448        4       0.00000000       0.01318319      -0.00137096      -0.02271098
Pt       5.61442781      -0.00000017      19.95723450        4       0.00000000       0.00138320       0.00459482       0.00350438
Pt       1.40360720       2.43111836      19.95723436        4       0.00000000       0.00086913      -0.01534535       0.03379736
Pt       4.21082078       2.43111836      19.95723446        4       0.00000000      -0.00035332       0.00196248       0.01531853
Pt       7.01803484       2.43111844      19.95723431        4       0.00000000       0.00236351       0.00076605       0.01233374
Pt       2.80721414       4.86223727      19.95723413        4       0.00000000      -0.00096694       0.00977190       0.01275011
Pt       5.61442797       4.86223736      19.95723433        4       0.00000000      -0.00401946       0.01565398       0.01733151
Pt       8.42164142       4.86223724      19.95723439        4       0.00000000       0.00209070       0.01201373       0.01703509
Pt       1.40360727       0.81037261      22.29206790        3       0.00000000       0.00361489      -0.01317644       0.05205744
Pt       4.21082126       0.81037249      22.29206793        3       0.00000000      -0.00305393       0.01009575      -0.07250635
Pt       7.01803475       0.81037258      22.29206787        3       0.00000000       0.01345909       0.01129883      -0.07802013
Pt       2.80721449       3.24149123      22.29206778        3       0.00000000       0.01220470       0.03227677      -0.04736982
Pt       5.61442761       3.24149123      22.29206789        3       0.00000000       0.00591069       0.02762941      -0.03743024
Pt       8.42164155       3.24149130      22.29206812        3       0.00000000      -0.00940798       0.03037488      -0.04654293
Pt       4.21082090       5.67260997      22.29206743        3       0.00000000       0.00270649       0.04476028      -0.08829337
Pt       7.01803489       5.67261038      22.29206778        3       0.00000000       0.00462746       0.04129546      -0.09424094
Pt       9.82524818       5.67261058      22.29206804        3       0.00000000       0.00239446       0.02400481      -0.07524279
Pt      -0.00000057       1.62074568      24.58417368        2       0.00000000      -0.27579361       0.10631441       0.50118405
Pt       2.80721445       1.62074549      24.58417387        2       0.00000000       0.26910242       0.09150077       0.49235436
Pt       5.61442780       1.62074538      24.58417368        2       0.00000000      -0.00639872      -0.03670614      -0.02405613
Pt       1.40360635       4.05186441      24.58417386        2       0.00000000      -0.01182387      -0.02354695      -0.02621832
Pt       4.21082088       4.05186391      24.58417389        2       0.00000000      -0.06367281      -0.14383629      -0.03493670
Pt       7.01803505       4.05186405      24.58417404        2       0.00000000       0.04038812      -0.13878220      -0.03841564
Pt       2.80721273       6.48298348      24.58417381        2       0.00000000       0.08780479      -0.08239515      -0.12074152
Pt       5.61442805       6.48298330      24.58417394        2       0.00000000      -0.01822611       0.07621478      -0.23866537
Pt       8.42164222       6.48298341      24.58417373        2       0.00000000      -0.09633013      -0.08443998      -0.12862287
Pt      -0.00518816      -0.09705795      26.94075785        1       0.00000000       0.02142006      -0.02974805       0.00031357
Pt       2.79047410      -0.10129417      26.93804935        1       0.00000000       0.02295146       0.00272919       0.00683656
Pt       5.60672344      -0.16510053      26.88043687        1       0.00000000      -0.00354570       0.00293994      -0.00991249
Pt       1.40165931       2.33841005      26.91023883        1       0.00000000      -0.01430506       0.01982908       0.00565333
Pt       4.16546137       2.28932651      26.95013569        1       0.00000000       0.00438525      -0.00731790       0.00692324
Pt       7.05606217       2.28938328      26.94529361        1       0.00000000      -0.00348086       0.01213153       0.01251185
Pt       2.79801992       4.76628848      26.91582257        1       0.00000000       0.01393756      -0.00045865       0.00368676
Pt       5.60514953       4.85389391      26.84327477        1       0.00000000      -0.00693432       0.02228889       0.01210388
Pt       8.41023234       4.76824419      26.91437365        1       0.00000000       0.01665526      -0.00221563       0.00388273
O        5.62585030       2.49301005      28.58271262        0       0.50000000      -0.00658157      -0.00208195       0.00142252
H        5.62894815       1.62588777      29.04529117        0       0.50000000      -0.00392678      -0.02157537      -0.00470902
