38
Lattice="8.421641763931781 0.0 0.0 4.2108208819658905 7.293355709136913 0.0 0.0 0.0 46.87624170604845" Properties=species:S:1:pos:R:3:tags:I:1:initial_magmoms:R:1:forces:R:3 charge=0 spin=0 energy=-194.61144396359288 free_energy=-194.61144396359288 stress="0.009887182153761387 0.00015180822811089456 -5.5104187595134135e-06 0.00015180822811089456 0.009726323187351227 -4.515060027188156e-06 -5.5104187595134135e-06 -4.515060027188156e-06 -0.0001257385447388515" pbc="T T T"
Pt      -0.00000001       0.00000015      19.95723445        4       0.00000000      -0.00334536       0.00406519      -0.00273718
Pt       2.80721394      -0.00000009      19.95723448        4       0.00000000       0.00027106      -0.00091679       0.01413395
Pt       5.61442781      -0.00000017      19.95723450        4       0.00000000       0.00238642       0.00153511       0.00958717
Pt       1.40360720       2.43111836      19.95723436        4       0.00000000      -0.00365029      -0.00384925       0.01149768
Pt       4.21082078       2.43111836      19.95723446        4       0.00000000       0.00284014      -0.00099934       0.01179106
Pt       7.01803484       2.43111844      19.95723431        4       0.00000000       0.00233112      -0.00464781      -0.00283284
Pt       2.80721414       4.86223727      19.95723413        4       0.00000000      -0.00162767       0.00316190       0.01059149
Pt       5.61442797       4.86223736      19.95723433        4       0.00000000       0.00133896       0.00122924       0.01233517
Pt       8.42164142       4.86223724      19.95723439        4       0.00000000      -0.00114290       0.00043423       0.01303082
Pt       1.40360727       0.81037261      22.29206790        3       0.00000000       0.00102980      -0.00601820      -0.02138166
Pt       4.21082126       0.81037249      22.29206793        3       0.00000000      -0.00834156      -0.00044486      -0.04074320
Pt       7.01803475       0.81037258      22.29206787        3       0.00000000      -0.00168139      -0.00047820       0.02729080
Pt       2.80721449       3.24149123      22.29206778        3       0.00000000       0.00316544       0.00413987      -0.03434109
Pt       5.61442761       3.24149123      22.29206789        3       0.00000000      -0.00077008       0.00780463      -0.04154332
Pt       8.42164155       3.24149130      22.29206812        3       0.00000000      -0.00238502       0.00445379      -0.02404700
Pt       4.21082090       5.67260997      22.29206743        3       0.00000000       0.00547237      -0.00547967      -0.04185960
Pt       7.01803489       5.67261038      22.29206778        3       0.00000000       0.00123946       0.00238580      -0.04191590
Pt       9.82524818       5.67261058      22.29206804        3       0.00000000      -0.00396195      -0.00990104      -0.03961610
Pt      -0.00000057       1.62074568      24.58417368        2       0.00000000       0.02197263       0.01118143       0.02695599
Pt       2.80721445       1.62074549      24.58417387        2       0.00000000      -0.01090808      -0.00105130       0.01967291
Pt       5.61442780       1.62074538      24.58417368        2       0.00000000       0.02285057      -0.00321959      -0.02082135
Pt       1.40360635       4.05186441      24.58417386        2       0.00000000      -0.01101757      -0.01627093       0.02429395
Pt       4.21082088       4.05186391      24.58417389        2       0.00000000      -0.00107160      -0.00132558       0.04328885
Pt       7.01803505       4.05186405      24.58417404        2       0.00000000      -0.01704129       0.00617569       0.02524998
Pt       2.80721273       6.48298348      24.58417381        2       0.00000000      -0.00020439       0.01922904      -0.02340464
Pt       5.61442805       6.48298330      24.58417394        2       0.00000000      -0.00393605      -0.01238342       0.02462718
Pt       8.42164222       6.48298341      24.58417373        2       0.00000000       0.00025009      -0.00282735       0.01507451
Pt       0.00255503       0.00551052      26.91671303        1       0.00000000       0.02074441       0.00749339       0.01043814
Pt       2.80562807      -0.00632654      26.91592563        1       0.00000000      -0.02110514      -0.00644128       0.00426846
Pt       5.61380251      -0.00056503      26.91716548        1       0.00000000       0.00132220       0.00039209       0.02313889
Pt       1.39457234       2.42626902      26.92069019        1       0.00000000       0.03947881       0.02482500       0.00048509
Pt       4.23373929       2.38911705      26.90584534        1       0.00000000      -0.00198853       0.00071847      -0.00344672
Pt       7.02510906       2.43017126      26.91578340        1       0.00000000       0.01612113       0.01265281       0.00858577
Pt       2.78371910       4.90414698      26.90615931        1       0.00000000       0.00273703      -0.00065674      -0.00098886
Pt       5.62325089       4.86731683      26.92027495        1       0.00000000      -0.04107086      -0.02519922      -0.00649197
Pt       8.41438953       4.86412268      26.91479694        1       0.00000000      -0.01740424      -0.01448360       0.00188880
O        3.50685020       3.64567260      29.43507612        0       0.50000000      -0.02606384      -0.01181513       0.00946664
H        3.51215199       3.64832057      28.44130826        0       0.50000000       0.03316594       0.01653166      -0.00152201
