38
Lattice="8.421641763931781 0.0 0.0 4.2108208819658905 7.293355709136913 0.0 0.0 0.0 46.87624170604845" Properties=species:S:1:pos:R:3:tags:I:1:initial_magmoms:R:1:forces:R:3 charge=0 spin=0 energy=-196.5513395934757 free_energy=-196.5513395934757 stress="0.00909233745187521 -0.00039769013528712094 -0.0002068706089630723 -0.00039769013528712094 0.009426713921129704 -8.13402293715626e-05 -0.0002068706089630723 -8.13402293715626e-05 -0.00032646144973114133" pbc="T T T"
Pt      -0.00000001       0.00000015      19.95723445        4       0.00000000       0.00499120      -0.01255949      -0.02258758
Pt       2.80721394      -0.00000009      19.95723448        4       0.00000000      -0.00575425      -0.00676083       0.01318565
Pt       5.61442781      -0.00000017      19.95723450        4       0.00000000       0.01494906       0.00823291       0.03339435
Pt       1.40360720       2.43111836      19.95723436        4       0.00000000      -0.00952708      -0.01173226       0.01739474
Pt       4.21082078       2.43111836      19.95723446        4       0.00000000       0.00048620      -0.00156422       0.01481472
Pt       7.01803484       2.43111844      19.95723431        4       0.00000000      -0.00402382       0.01162741      -0.02203565
Pt       2.80721414       4.86223727      19.95723413        4       0.00000000       0.00029071       0.00114918       0.01267225
Pt       5.61442797       4.86223736      19.95723433        4       0.00000000      -0.00285970      -0.00134745       0.00327904
Pt       8.42164142       4.86223724      19.95723439        4       0.00000000      -0.00939722      -0.00494817       0.01728511
Pt       1.40360727       0.81037261      22.29206790        3       0.00000000      -0.03371642      -0.02502060      -0.09034621
Pt       4.21082126       0.81037249      22.29206793        3       0.00000000      -0.02739965      -0.00999749      -0.04884177
Pt       7.01803475       0.81037258      22.29206787        3       0.00000000       0.01607298       0.00720800       0.05364430
Pt       2.80721449       3.24149123      22.29206778        3       0.00000000      -0.02089305      -0.01342040      -0.03570612
Pt       5.61442761       3.24149123      22.29206789        3       0.00000000      -0.00209568      -0.01043053      -0.07333132
Pt       8.42164155       3.24149130      22.29206812        3       0.00000000      -0.03127788      -0.02207700      -0.09511525
Pt       4.21082090       5.67260997      22.29206743        3       0.00000000      -0.00964809       0.00352698      -0.07734072
Pt       7.01803489       5.67261038      22.29206778        3       0.00000000      -0.01493242      -0.01436545      -0.07413504
Pt       9.82524818       5.67261058      22.29206804        3       0.00000000      -0.01397455      -0.02717282      -0.04599829
Pt      -0.00000057       1.62074568      24.58417368        2       0.00000000      -0.08659454      -0.04175123      -0.24914299
Pt       2.80721445       1.62074549      24.58417387        2       0.00000000       0.13395244       0.03920440      -0.03418417
Pt       5.61442780       1.62074538      24.58417368        2       0.00000000      -0.22555177       0.18929210       0.49647945
Pt       1.40360635       4.05186441      24.58417386        2       0.00000000       0.08546592       0.12993635      -0.03779826
Pt       4.21082088       4.05186391      24.58417389        2       0.00000000       0.01667576       0.02643478      -0.02404268
Pt       7.01803505       4.05186405      24.58417404        2       0.00000000       0.09625178      -0.02354534      -0.12686895
Pt       2.80721273       6.48298348      24.58417381        2       0.00000000       0.02099543      -0.28289503       0.51020443
Pt       5.61442805       6.48298330      24.58417394        2       0.00000000       0.00628848       0.13264030      -0.14016268
Pt       8.42164222       6.48298341      24.58417373        2       0.00000000       0.00604625       0.01689155      -0.02813728
Pt       0.05923937       0.06019968      26.93778690        1       0.00000000       0.00180427       0.00697989       0.00688132
Pt       2.86170863       0.05869086      26.91255111        1       0.00000000       0.03057522      -0.01798136       0.01268633
Pt       5.67030460       0.04467695      26.91078380        1       0.00000000       0.00643312       0.00607087      -0.00458648
Pt       1.38647277       2.44320770      26.83996179        1       0.00000000       0.00135644      -0.02399397       0.02791526
Pt       4.33583124       2.46863477      26.94777383        1       0.00000000       0.00099768      -0.01033214      -0.00445160
Pt       7.08427239       2.48850457      26.93891190        1       0.00000000       0.01609727      -0.03457046       0.00331466
Pt       2.89067939       4.96949231      26.95072026        1       0.00000000      -0.00449615       0.01444585      -0.00528854
Pt       5.73390815       4.95207015      26.87933696        1       0.00000000       0.00911391      -0.01733096      -0.00639957
Pt       8.47823158       4.91429851      26.91277456        1       0.00000000       0.02436726       0.00464443       0.00826037
O        3.43689984       3.61919319      28.58129696        0       0.50000000       0.02393166       0.00574329       0.04185487
H        4.19093954       4.04519867      29.04758497        0       0.50000000      -0.01500074       0.00976900      -0.02676583
