38
Lattice="8.421641763931781 0.0 0.0 4.2108208819658905 7.293355709136913 0.0 0.0 0.0 46.87624170604845" Properties=species:S:1:pos:R:3:tags:I:1:initial_magmoms:R:1:forces:R:3 charge=0 spin=0 energy=-196.54989954525792 free_energy=-196.54989954525792 stress="0.009120233356952667 -0.0004091347800567746 -0.0002042088017333299 -0.0004091347800567746 0.009479359723627567 -7.702424773015082e-05 -0.0002042088017333299 -7.702424773015082e-05 -0.00028672185726463795" pbc="T T T"
Pt      -0.00000001       0.00000015      19.95723445        4       0.00000000       0.00427971      -0.01101493      -0.02058440
Pt       2.80721394      -0.00000009      19.95723448        4       0.00000000      -0.00446312      -0.00520099       0.01395066
Pt       5.61442781      -0.00000017      19.95723450        4       0.00000000       0.01478927       0.00885382       0.03264824
Pt       1.40360720       2.43111836      19.95723436        4       0.00000000      -0.00848266      -0.01014062       0.01760958
Pt       4.21082078       2.43111836      19.95723446        4       0.00000000       0.00096233      -0.00070925       0.01462464
Pt       7.01803484       2.43111844      19.95723431        4       0.00000000      -0.00359829       0.01224843      -0.02197369
Pt       2.80721414       4.86223727      19.95723413        4       0.00000000       0.00083929       0.00186671       0.01216682
Pt       5.61442797       4.86223736      19.95723433        4       0.00000000      -0.00177164      -0.00058072       0.00333152
Pt       8.42164142       4.86223724      19.95723439        4       0.00000000      -0.00811501      -0.00388716       0.01787758
Pt       1.40360727       0.81037261      22.29206790        3       0.00000000      -0.03131585      -0.02053875      -0.08721760
Pt       4.21082126       0.81037249      22.29206793        3       0.00000000      -0.02274718      -0.00562576      -0.04801670
Pt       7.01803475       0.81037258      22.29206787        3       0.00000000       0.01689974       0.01145088       0.05013447
Pt       2.80721449       3.24149123      22.29206778        3       0.00000000      -0.01788628      -0.00932644      -0.03265353
Pt       5.61442761       3.24149123      22.29206789        3       0.00000000       0.00212695      -0.00634665      -0.07260602
Pt       8.42164155       3.24149130      22.29206812        3       0.00000000      -0.02851904      -0.01966359      -0.09228627
Pt       4.21082090       5.67260997      22.29206743        3       0.00000000      -0.00586113       0.00560003      -0.07788152
Pt       7.01803489       5.67261038      22.29206778        3       0.00000000      -0.01120562      -0.01026281      -0.07377801
Pt       9.82524818       5.67261058      22.29206804        3       0.00000000      -0.00964764      -0.02206573      -0.04743044
Pt      -0.00000057       1.62074568      24.58417368        2       0.00000000      -0.08489468      -0.04402927      -0.24117045
Pt       2.80721445       1.62074549      24.58417387        2       0.00000000       0.11743515       0.02987274      -0.01186248
Pt       5.61442780       1.62074538      24.58417368        2       0.00000000      -0.23165885       0.16818537       0.47371942
Pt       1.40360635       4.05186441      24.58417386        2       0.00000000       0.07453046       0.10258320      -0.00916968
Pt       4.21082088       4.05186391      24.58417389        2       0.00000000       0.00423704       0.01404184      -0.02646216
Pt       7.01803505       4.05186405      24.58417404        2       0.00000000       0.10125358      -0.03862048      -0.13321061
Pt       2.80721273       6.48298348      24.58417381        2       0.00000000       0.00097685      -0.28537032       0.50705868
Pt       5.61442805       6.48298330      24.58417394        2       0.00000000       0.00215278       0.12804586      -0.14077459
Pt       8.42164222       6.48298341      24.58417373        2       0.00000000      -0.00741437       0.00084572      -0.01897890
Pt       0.04581745       0.04563074      26.93597117        1       0.00000000      -0.00494944       0.00419592       0.00550488
Pt       2.84806291       0.04513375      26.91533443        1       0.00000000       0.02181004      -0.03180933       0.00092474
Pt       5.64916720       0.03484419      26.90970409        1       0.00000000       0.03051974      -0.01169628      -0.00230733
Pt       1.37450861       2.42569601      26.84929415        1       0.00000000       0.00548976       0.00291909      -0.00363182
Pt       4.31134719       2.45519802      26.95017430        1       0.00000000       0.01633346       0.02073219       0.01186795
Pt       7.06652173       2.46901541      26.93689237        1       0.00000000       0.02787454      -0.01096105       0.00378544
Pt       2.87218762       4.95445442      26.95134194        1       0.00000000       0.01419284       0.01860225      -0.00147215
Pt       5.71845777       4.93387029      26.87183839        1       0.00000000       0.03239378       0.00911519       0.00242169
Pt       8.46894161       4.89539721      26.91417527        1       0.00000000      -0.00419695       0.01901670      -0.00311049
O        3.44055314       3.63653322      28.59610793        0       0.50000000      -0.00015657      -0.02068584      -0.03600327
H        4.21566379       4.07616477      29.01161415        0       0.50000000      -0.00221315       0.01035993       0.03495571
