38
Lattice="8.421641763931781 0.0 0.0 4.2108208819658905 7.293355709136913 0.0 0.0 0.0 46.87624170604845" Properties=species:S:1:pos:R:3:tags:I:1:initial_magmoms:R:1:forces:R:3 charge=0 spin=0 energy=-196.54990145260655 free_energy=-196.54990145260655 stress="0.009120424278080463 -0.0004090974398422986 -0.00020407751435413957 -0.0004090974398422986 0.00947930384427309 -7.698003901168704e-05 -0.00020407751435413957 -7.698003901168704e-05 -0.0002866350987460464" pbc="T T T"
Pt      -0.00000001       0.00000015      19.95723445        4       0.00000000       0.00427925      -0.01101485      -0.02058427
Pt       2.80721394      -0.00000009      19.95723448        4       0.00000000      -0.00446288      -0.00520094       0.01395087
Pt       5.61442781      -0.00000017      19.95723450        4       0.00000000       0.01479037       0.00885436       0.03264845
Pt       1.40360720       2.43111836      19.95723436        4       0.00000000      -0.00848373      -0.01013947       0.01760890
Pt       4.21082078       2.43111836      19.95723446        4       0.00000000       0.00095902      -0.00070803       0.01462608
Pt       7.01803484       2.43111844      19.95723431        4       0.00000000      -0.00359892       0.01224734      -0.02197433
Pt       2.80721414       4.86223727      19.95723413        4       0.00000000       0.00083891       0.00186546       0.01216776
Pt       5.61442797       4.86223736      19.95723433        4       0.00000000      -0.00177169      -0.00058039       0.00333131
Pt       8.42164142       4.86223724      19.95723439        4       0.00000000      -0.00811929      -0.00388806       0.01787633
Pt       1.40360727       0.81037261      22.29206790        3       0.00000000      -0.03132051      -0.02053853      -0.08722045
Pt       4.21082126       0.81037249      22.29206793        3       0.00000000      -0.02274790      -0.00562374      -0.04801467
Pt       7.01803475       0.81037258      22.29206787        3       0.00000000       0.01690052       0.01144682       0.05012721
Pt       2.80721449       3.24149123      22.29206778        3       0.00000000      -0.01789369      -0.00931973      -0.03264020
Pt       5.61442761       3.24149123      22.29206789        3       0.00000000       0.00212338      -0.00634960      -0.07260893
Pt       8.42164155       3.24149130      22.29206812        3       0.00000000      -0.02852699      -0.01966379      -0.09228779
Pt       4.21082090       5.67260997      22.29206743        3       0.00000000      -0.00586605       0.00560103      -0.07788514
Pt       7.01803489       5.67261038      22.29206778        3       0.00000000      -0.01120927      -0.01026368      -0.07376833
Pt       9.82524818       5.67261058      22.29206804        3       0.00000000      -0.00965453      -0.02206510      -0.04744300
Pt      -0.00000057       1.62074568      24.58417368        2       0.00000000      -0.08489755      -0.04402015      -0.24122107
Pt       2.80721445       1.62074549      24.58417387        2       0.00000000       0.11746487       0.02987081      -0.01182305
Pt       5.61442780       1.62074538      24.58417368        2       0.00000000      -0.23169720       0.16820289       0.47373733
Pt       1.40360635       4.05186441      24.58417386        2       0.00000000       0.07459815       0.10258237      -0.00915205
Pt       4.21082088       4.05186391      24.58417389        2       0.00000000       0.00420881       0.01402133      -0.02643346
Pt       7.01803505       4.05186405      24.58417404        2       0.00000000       0.10129111      -0.03860419      -0.13327432
Pt       2.80721273       6.48298348      24.58417381        2       0.00000000       0.00100220      -0.28537548       0.50712991
Pt       5.61442805       6.48298330      24.58417394        2       0.00000000       0.00218220       0.12802882      -0.14079709
Pt       8.42164222       6.48298341      24.58417373        2       0.00000000      -0.00741840       0.00082680      -0.01895120
Pt       0.04587517       0.04565376      26.93596378        1       0.00000000      -0.00514232       0.00411226       0.00554171
Pt       2.84806585       0.04511687      26.91534574        1       0.00000000       0.02190094      -0.03178157       0.00088210
Pt       5.64915787       0.03485667      26.90969872        1       0.00000000       0.03060856      -0.01173979      -0.00230860
Pt       1.37450987       2.42568889      26.84929613        1       0.00000000       0.00560032       0.00299264      -0.00362177
Pt       4.31133244       2.45519947      26.95020309        1       0.00000000       0.01644465       0.02071133       0.01174772
Pt       7.06651642       2.46902513      26.93687493        1       0.00000000       0.02791884      -0.01103075       0.00384948
Pt       2.87224352       4.95451609      26.95136808        1       0.00000000       0.01405253       0.01851126      -0.00158808
Pt       5.71847579       4.93384548      26.87182233        1       0.00000000       0.03240992       0.00921369       0.00249854
Pt       8.46899665       4.89536777      26.91417502        1       0.00000000      -0.00431137       0.01915205      -0.00312009
O        3.44056695       3.63653035      28.59609448        0       0.50000000       0.00023511      -0.02035656      -0.03551082
H        4.21563652       4.07615770      29.01171710        0       0.50000000      -0.00268756       0.01002306       0.03450493
