38
Lattice="8.421641763931781 0.0 0.0 4.2108208819658905 7.293355709136913 0.0 0.0 0.0 46.87624170604845" Properties=species:S:1:pos:R:3:tags:I:1:initial_magmoms:R:1:forces:R:3 charge=0 spin=0 energy=-194.61144396359288 free_energy=-194.61144396359288 stress="0.009887184016406536 0.00015180838818196207 -5.51077619093121e-06 0.00015180838818196207 0.009726323187351227 -4.515116870607017e-06 -5.51077619093121e-06 -4.515116870607017e-06 -0.00012573989806696773" pbc="T T T"
Pt      -0.00000001       0.00000015      19.95723445        4       0.00000000      -0.00334534       0.00406532      -0.00273727
Pt       2.80721394      -0.00000009      19.95723448        4       0.00000000       0.00027104      -0.00091669       0.01413382
Pt       5.61442781      -0.00000017      19.95723450        4       0.00000000       0.00238649       0.00153510       0.00958714
Pt       1.40360720       2.43111836      19.95723436        4       0.00000000      -0.00365019      -0.00384921       0.01149781
Pt       4.21082078       2.43111836      19.95723446        4       0.00000000       0.00284006      -0.00099938       0.01179123
Pt       7.01803484       2.43111844      19.95723431        4       0.00000000       0.00233122      -0.00464790      -0.00283292
Pt       2.80721414       4.86223727      19.95723413        4       0.00000000      -0.00162770       0.00316175       0.01059124
Pt       5.61442797       4.86223736      19.95723433        4       0.00000000       0.00133886       0.00122927       0.01233519
Pt       8.42164142       4.86223724      19.95723439        4       0.00000000      -0.00114293       0.00043429       0.01303094
Pt       1.40360727       0.81037261      22.29206790        3       0.00000000       0.00102981      -0.00601810      -0.02138146
Pt       4.21082126       0.81037249      22.29206793        3       0.00000000      -0.00834154      -0.00044480      -0.04074293
Pt       7.01803475       0.81037258      22.29206787        3       0.00000000      -0.00168139      -0.00047818       0.02729077
Pt       2.80721449       3.24149123      22.29206778        3       0.00000000       0.00316543       0.00413978      -0.03434099
Pt       5.61442761       3.24149123      22.29206789        3       0.00000000      -0.00077009       0.00780472      -0.04154332
Pt       8.42164155       3.24149130      22.29206812        3       0.00000000      -0.00238502       0.00445399      -0.02404694
Pt       4.21082090       5.67260997      22.29206743        3       0.00000000       0.00547234      -0.00547980      -0.04185968
Pt       7.01803489       5.67261038      22.29206778        3       0.00000000       0.00123954       0.00238569      -0.04191586
Pt       9.82524818       5.67261058      22.29206804        3       0.00000000      -0.00396190      -0.00990100      -0.03961607
Pt      -0.00000057       1.62074568      24.58417368        2       0.00000000       0.02197260       0.01118144       0.02695610
Pt       2.80721445       1.62074549      24.58417387        2       0.00000000      -0.01090811      -0.00105136       0.01967287
Pt       5.61442780       1.62074538      24.58417368        2       0.00000000       0.02285062      -0.00321969      -0.02082150
Pt       1.40360635       4.05186441      24.58417386        2       0.00000000      -0.01101734      -0.01627098       0.02429377
Pt       4.21082088       4.05186391      24.58417389        2       0.00000000      -0.00107175      -0.00132553       0.04328889
Pt       7.01803505       4.05186405      24.58417404        2       0.00000000      -0.01704141       0.00617566       0.02525000
Pt       2.80721273       6.48298348      24.58417381        2       0.00000000      -0.00020417       0.01922902      -0.02340454
Pt       5.61442805       6.48298330      24.58417394        2       0.00000000      -0.00393602      -0.01238336       0.02462734
Pt       8.42164222       6.48298341      24.58417373        2       0.00000000       0.00025000      -0.00282724       0.01507453
Pt       0.00255508       0.00551053      26.91671304        1       0.00000000       0.02074442       0.00749333       0.01043810
Pt       2.80562809      -0.00632654      26.91592562        1       0.00000000      -0.02110511      -0.00644138       0.00426856
Pt       5.61380252      -0.00056502      26.91716548        1       0.00000000       0.00132211       0.00039221       0.02313878
Pt       1.39457233       2.42626902      26.92069019        1       0.00000000       0.03947852       0.02482497       0.00048465
Pt       4.23373925       2.38911705      26.90584534        1       0.00000000      -0.00198840       0.00071838      -0.00344649
Pt       7.02510905       2.43017126      26.91578341        1       0.00000000       0.01612103       0.01265293       0.00858583
Pt       2.78371909       4.90414698      26.90615931        1       0.00000000       0.00273711      -0.00065678      -0.00098893
Pt       5.62325089       4.86731681      26.92027494        1       0.00000000      -0.04107067      -0.02519925      -0.00649188
Pt       8.41438953       4.86412268      26.91479694        1       0.00000000      -0.01740443      -0.01448371       0.00188878
O        3.50685020       3.64567260      29.43507608        0       0.50000000      -0.02606370      -0.01181499       0.00946630
H        3.51215199       3.64832057      28.44130829        0       0.50000000       0.03316589       0.01653161      -0.00152179
