38
Lattice="8.421641763931781 0.0 0.0 4.2108208819658905 7.293355709136913 0.0 0.0 0.0 46.87624170604845" Properties=species:S:1:pos:R:3:tags:I:1:initial_magmoms:R:1:forces:R:3 charge=0 spin=0 energy=-196.55126711422764 free_energy=-196.55126711422764 stress="0.00909140333533287 -0.0003977159794885665 -0.00020749325631186366 -0.0003977159794885665 0.009426803328096867 -8.186702325474471e-05 -0.00020749325631186366 -8.186702325474471e-05 -0.00032790907425805926" pbc="T T T"
Pt      -0.00000001       0.00000015      19.95723445        4       0.00000000       0.00501793      -0.01257532      -0.02260857
Pt       2.80721394      -0.00000009      19.95723448        4       0.00000000      -0.00571504      -0.00677101       0.01318334
Pt       5.61442781      -0.00000017      19.95723450        4       0.00000000       0.01492963       0.00821778       0.03337866
Pt       1.40360720       2.43111836      19.95723436        4       0.00000000      -0.00951783      -0.01174224       0.01739906
Pt       4.21082078       2.43111836      19.95723446        4       0.00000000       0.00051441      -0.00155911       0.01480772
Pt       7.01803484       2.43111844      19.95723431        4       0.00000000      -0.00401514       0.01159518      -0.02201839
Pt       2.80721414       4.86223727      19.95723413        4       0.00000000       0.00031823       0.00114502       0.01265904
Pt       5.61442797       4.86223736      19.95723433        4       0.00000000      -0.00286038      -0.00134883       0.00326744
Pt       8.42164142       4.86223724      19.95723439        4       0.00000000      -0.00936406      -0.00491423       0.01729938
Pt       1.40360727       0.81037261      22.29206790        3       0.00000000      -0.03368950      -0.02505772      -0.09047870
Pt       4.21082126       0.81037249      22.29206793        3       0.00000000      -0.02739048      -0.01001615      -0.04866697
Pt       7.01803475       0.81037258      22.29206787        3       0.00000000       0.01618735       0.00711953       0.05361928
Pt       2.80721449       3.24149123      22.29206778        3       0.00000000      -0.02083878      -0.01345425      -0.03574096
Pt       5.61442761       3.24149123      22.29206789        3       0.00000000      -0.00204160      -0.01042207      -0.07326448
Pt       8.42164155       3.24149130      22.29206812        3       0.00000000      -0.03118736      -0.02212423      -0.09520001
Pt       4.21082090       5.67260997      22.29206743        3       0.00000000      -0.00955980       0.00351734      -0.07734588
Pt       7.01803489       5.67261038      22.29206778        3       0.00000000      -0.01490199      -0.01437811      -0.07413939
Pt       9.82524818       5.67261058      22.29206804        3       0.00000000      -0.01391261      -0.02722835      -0.04580574
Pt      -0.00000057       1.62074568      24.58417368        2       0.00000000      -0.08691534      -0.04180605      -0.24775048
Pt       2.80721445       1.62074549      24.58417387        2       0.00000000       0.13445662       0.03923996      -0.03507034
Pt       5.61442780       1.62074538      24.58417368        2       0.00000000      -0.22593229       0.18944575       0.49674648
Pt       1.40360635       4.05186441      24.58417386        2       0.00000000       0.08511006       0.13059479      -0.03895131
Pt       4.21082088       4.05186391      24.58417389        2       0.00000000       0.01675574       0.02623507      -0.02406804
Pt       7.01803505       4.05186405      24.58417404        2       0.00000000       0.09594709      -0.02356171      -0.12674879
Pt       2.80721273       6.48298348      24.58417381        2       0.00000000       0.02072553      -0.28265929       0.50927347
Pt       5.61442805       6.48298330      24.58417394        2       0.00000000       0.00609104       0.13272949      -0.14025889
Pt       8.42164222       6.48298341      24.58417373        2       0.00000000       0.00597935       0.01702147      -0.02849537
Pt       0.05866131       0.05972066      26.93779715        1       0.00000000       0.00433478       0.01153928       0.00632481
Pt       2.86149904       0.05891072      26.91235151        1       0.00000000       0.03002331      -0.01860864       0.01338970
Pt       5.67016071       0.04455724      26.91072770        1       0.00000000       0.00593041       0.00692114      -0.00415325
Pt       1.38683492       2.44358435      26.83956881        1       0.00000000      -0.00353243      -0.02688096       0.02918490
Pt       4.33579224       2.46873632      26.94802034        1       0.00000000       0.00007700      -0.01109566      -0.00525317
Pt       7.08357942       2.48860560      26.93897056        1       0.00000000       0.02083628      -0.03526450       0.00261863
Pt       2.89044305       4.96943525      26.95057023        1       0.00000000      -0.00504505       0.01312351      -0.00422024
Pt       5.73370950       4.95220868      26.87941371        1       0.00000000       0.00921878      -0.01747369      -0.00646484
Pt       8.47783599       4.91437357      26.91268639        1       0.00000000       0.02488385       0.00405059       0.00850261
O        3.43683411       3.61879323      28.58142193        0       0.50000000       0.02085280       0.00580629       0.03987994
H        4.19050312       4.04530212      29.04766617        0       0.50000000      -0.01177033       0.01063993      -0.02483051
