38
Lattice="8.421641763931781 0.0 0.0 4.2108208819658905 7.293355709136913 0.0 0.0 0.0 46.87624170604845" Properties=species:S:1:pos:R:3:tags:I:1:initial_magmoms:R:1:forces:R:3 charge=0 spin=0 energy=-194.61144396359288 free_energy=-194.61144396359288 stress="0.009887185879051685 0.00015180502668954432 -5.5129980864876416e-06 0.00015180502668954432 0.00972632598131895 -4.516924946074141e-06 -5.5129980864876416e-06 -4.516924946074141e-06 -0.00012573589629027992" pbc="T T T"
Pt      -0.00000001       0.00000015      19.95723445        4       0.00000000      -0.00334548       0.00406536      -0.00273708
Pt       2.80721394      -0.00000009      19.95723448        4       0.00000000       0.00027131      -0.00091675       0.01413397
Pt       5.61442781      -0.00000017      19.95723450        4       0.00000000       0.00238658       0.00153509       0.00958721
Pt       1.40360720       2.43111836      19.95723436        4       0.00000000      -0.00365032      -0.00384938       0.01149772
Pt       4.21082078       2.43111836      19.95723446        4       0.00000000       0.00284023      -0.00099955       0.01179108
Pt       7.01803484       2.43111844      19.95723431        4       0.00000000       0.00233129      -0.00464801      -0.00283277
Pt       2.80721414       4.86223727      19.95723413        4       0.00000000      -0.00162759       0.00316199       0.01059136
Pt       5.61442797       4.86223736      19.95723433        4       0.00000000       0.00133901       0.00122932       0.01233521
Pt       8.42164142       4.86223724      19.95723439        4       0.00000000      -0.00114301       0.00043441       0.01303069
Pt       1.40360727       0.81037261      22.29206790        3       0.00000000       0.00102969      -0.00601822      -0.02138180
Pt       4.21082126       0.81037249      22.29206793        3       0.00000000      -0.00834191      -0.00044455      -0.04074272
Pt       7.01803475       0.81037258      22.29206787        3       0.00000000      -0.00168148      -0.00047827       0.02729151
Pt       2.80721449       3.24149123      22.29206778        3       0.00000000       0.00316537       0.00413998      -0.03434088
Pt       5.61442761       3.24149123      22.29206789        3       0.00000000      -0.00077034       0.00780467      -0.04154335
Pt       8.42164155       3.24149130      22.29206812        3       0.00000000      -0.00238506       0.00445376      -0.02404710
Pt       4.21082090       5.67260997      22.29206743        3       0.00000000       0.00547232      -0.00547985      -0.04185940
Pt       7.01803489       5.67261038      22.29206778        3       0.00000000       0.00123936       0.00238579      -0.04191596
Pt       9.82524818       5.67261058      22.29206804        3       0.00000000      -0.00396193      -0.00990079      -0.03961584
Pt      -0.00000057       1.62074568      24.58417368        2       0.00000000       0.02197255       0.01118108       0.02695564
Pt       2.80721445       1.62074549      24.58417387        2       0.00000000      -0.01090840      -0.00105082       0.01967525
Pt       5.61442780       1.62074538      24.58417368        2       0.00000000       0.02285104      -0.00321986      -0.02082237
Pt       1.40360635       4.05186441      24.58417386        2       0.00000000      -0.01101673      -0.01627103       0.02429446
Pt       4.21082088       4.05186391      24.58417389        2       0.00000000      -0.00107196      -0.00132626       0.04329006
Pt       7.01803505       4.05186405      24.58417404        2       0.00000000      -0.01704149       0.00617579       0.02524982
Pt       2.80721273       6.48298348      24.58417381        2       0.00000000      -0.00020412       0.01922917      -0.02340481
Pt       5.61442805       6.48298330      24.58417394        2       0.00000000      -0.00393612      -0.01238351       0.02462672
Pt       8.42164222       6.48298341      24.58417373        2       0.00000000       0.00025010      -0.00282726       0.01507400
Pt       0.00255516       0.00551066      26.91671304        1       0.00000000       0.02074532       0.00749200       0.01043824
Pt       2.80562795      -0.00632668      26.91592559        1       0.00000000      -0.02110671      -0.00643888       0.00426882
Pt       5.61380249      -0.00056502      26.91716555        1       0.00000000       0.00132195       0.00039171       0.02313923
Pt       1.39457232       2.42626904      26.92069021        1       0.00000000       0.03948551       0.02482510       0.00048310
Pt       4.23373972       2.38911629      26.90584510        1       0.00000000      -0.00199469       0.00072342      -0.00344728
Pt       7.02510926       2.43017130      26.91578340        1       0.00000000       0.01612123       0.01265283       0.00858641
Pt       2.78371868       4.90414769      26.90615906        1       0.00000000       0.00273773      -0.00066099      -0.00098850
Pt       5.62325089       4.86731682      26.92027494        1       0.00000000      -0.04107239      -0.02520050      -0.00649171
Pt       8.41438933       4.86412265      26.91479686        1       0.00000000      -0.01740403      -0.01448459       0.00188929
O        3.50685008       3.64567254      29.43507511        0       0.50000000      -0.02606388      -0.01181382       0.00946444
H        3.51215215       3.64832066      28.44130967        0       0.50000000       0.03316716       0.01653166      -0.00152247
