38
Lattice="8.421641763931781 0.0 0.0 4.2108208819658905 7.293355709136913 0.0 0.0 0.0 46.87624170604845" Properties=species:S:1:pos:R:3:tags:I:1:initial_magmoms:R:1:forces:R:3 charge=0 spin=0 energy=-196.5527243285831 free_energy=-196.5527243285831 stress="0.009692899882793427 1.170565519714728e-05 9.198214456773712e-07 1.170565519714728e-05 0.008866694755852222 0.0002359706995775923 9.198214456773712e-07 0.0002359706995775923 -0.000301494961604476" pbc="T T T"
Pt      -0.00000001       0.00000015      19.95723445        4       0.00000000      -0.01268084       0.00249745      -0.02248344
Pt       2.80721394      -0.00000009      19.95723448        4       0.00000000       0.01306969      -0.00136428      -0.02263035
Pt       5.61442781      -0.00000017      19.95723450        4       0.00000000       0.00141614       0.00459697       0.00350779
Pt       1.40360720       2.43111836      19.95723436        4       0.00000000       0.00093357      -0.01550133       0.03385760
Pt       4.21082078       2.43111836      19.95723446        4       0.00000000      -0.00038245       0.00193895       0.01534343
Pt       7.01803484       2.43111844      19.95723431        4       0.00000000       0.00231699       0.00073650       0.01237590
Pt       2.80721414       4.86223727      19.95723413        4       0.00000000      -0.00100251       0.00981662       0.01269034
Pt       5.61442797       4.86223736      19.95723433        4       0.00000000      -0.00404595       0.01561250       0.01733916
Pt       8.42164142       4.86223724      19.95723439        4       0.00000000       0.00206372       0.01202400       0.01705809
Pt       1.40360727       0.81037261      22.29206790        3       0.00000000       0.00324423      -0.01325641       0.05263298
Pt       4.21082126       0.81037249      22.29206793        3       0.00000000      -0.00307781       0.01011442      -0.07262375
Pt       7.01803475       0.81037258      22.29206787        3       0.00000000       0.01351976       0.01126563      -0.07820980
Pt       2.80721449       3.24149123      22.29206778        3       0.00000000       0.01200920       0.03229369      -0.04766164
Pt       5.61442761       3.24149123      22.29206789        3       0.00000000       0.00576480       0.02758217      -0.03703442
Pt       8.42164155       3.24149130      22.29206812        3       0.00000000      -0.00933417       0.03030759      -0.04710522
Pt       4.21082090       5.67260997      22.29206743        3       0.00000000       0.00248519       0.04471426      -0.08865873
Pt       7.01803489       5.67261038      22.29206778        3       0.00000000       0.00469741       0.04115844      -0.09419716
Pt       9.82524818       5.67261058      22.29206804        3       0.00000000       0.00239794       0.02402585      -0.07525001
Pt      -0.00000057       1.62074568      24.58417368        2       0.00000000      -0.27610078       0.10603358       0.50084805
Pt       2.80721445       1.62074549      24.58417387        2       0.00000000       0.26984316       0.09170124       0.49430394
Pt       5.61442780       1.62074538      24.58417368        2       0.00000000      -0.00662814      -0.03591022      -0.02331280
Pt       1.40360635       4.05186441      24.58417386        2       0.00000000      -0.01168946      -0.02372694      -0.02511023
Pt       4.21082088       4.05186391      24.58417389        2       0.00000000      -0.06113338      -0.14358555      -0.03296677
Pt       7.01803505       4.05186405      24.58417404        2       0.00000000       0.03860854      -0.13673386      -0.03430491
Pt       2.80721273       6.48298348      24.58417381        2       0.00000000       0.08744291      -0.08238605      -0.12068357
Pt       5.61442805       6.48298330      24.58417394        2       0.00000000      -0.01772938       0.07497127      -0.23712476
Pt       8.42164222       6.48298341      24.58417373        2       0.00000000      -0.09552882      -0.08457442      -0.12815495
Pt      -0.00514362      -0.09731077      26.94075525        1       0.00000000       0.02061045      -0.02629961       0.00110632
Pt       2.79117680      -0.10143809      26.93812846        1       0.00000000       0.01932861       0.00125646       0.00733363
Pt       5.60707697      -0.16445530      26.88047129        1       0.00000000      -0.00275302       0.00207158      -0.00913364
Pt       1.40114287       2.33777496      26.91041593        1       0.00000000      -0.01222955       0.02313224       0.00505359
Pt       4.16453501       2.28810410      26.95054160        1       0.00000000       0.00605170      -0.00111810       0.00364032
Pt       7.05632244       2.28984554      26.94509993        1       0.00000000      -0.00444927       0.01199795       0.01249458
Pt       2.79884006       4.76602329      26.91566454        1       0.00000000       0.01049207      -0.00000947       0.00397800
Pt       5.60473283       4.85505108      26.84476586        1       0.00000000      -0.00246994       0.01904153       0.00319943
Pt       8.41107202       4.76885476      26.91469912        1       0.00000000       0.01345654      -0.00527551       0.00169529
O        5.62432616       2.49738554      28.58141091        0       0.50000000      -0.00536274      -0.00312185       0.00338737
H        5.62758085       1.63257966      29.04807561        0       0.50000000      -0.00315436      -0.02602727      -0.00519954
