38
Lattice="8.421641763931781 0.0 0.0 4.2108208819658905 7.293355709136913 0.0 0.0 0.0 46.87624170604845" Properties=species:S:1:pos:R:3:tags:I:1:initial_magmoms:R:1:forces:R:3 charge=0 spin=0 energy=-194.69036432797276 free_energy=-194.69036432797276 stress="0.009590815752744675 -2.3198430676441006e-10 2.2642359454039251e-07 -2.3198430676441006e-10 0.009590950794517994 1.724520304335897e-09 2.2642359454039251e-07 1.724520304335897e-09 -0.00015933533723000437" pbc="T T T"
Pt      -0.00000001       0.00000015      19.95723445        4       0.00000000       0.00566649       0.00377154      -0.00139936
Pt       2.80721394      -0.00000009      19.95723448        4       0.00000000      -0.00607963       0.00305250      -0.00136671
Pt       5.61442781      -0.00000017      19.95723450        4       0.00000000       0.00081265      -0.00214592       0.01306430
Pt       1.40360720       2.43111836      19.95723436        4       0.00000000       0.00040720      -0.00681757      -0.00135638
Pt       4.21082078       2.43111836      19.95723446        4       0.00000000      -0.00402868      -0.00417887       0.01199390
Pt       7.01803484       2.43111844      19.95723431        4       0.00000000       0.00563276      -0.00139837       0.01200364
Pt       2.80721414       4.86223727      19.95723413        4       0.00000000      -0.00230204       0.00037245       0.01310217
Pt       5.61442797       4.86223736      19.95723433        4       0.00000000      -0.00160296       0.00557684       0.01203084
Pt       8.42164142       4.86223724      19.95723439        4       0.00000000       0.00149227       0.00176719       0.01311716
Pt       1.40360727       0.81037261      22.29206790        3       0.00000000      -0.00000309       0.00000379       0.07112551
Pt       4.21082126       0.81037249      22.29206793        3       0.00000000       0.00865081      -0.00414067      -0.04159698
Pt       7.01803475       0.81037258      22.29206787        3       0.00000000      -0.00919263      -0.00511049      -0.04369341
Pt       2.80721449       3.24149123      22.29206778        3       0.00000000       0.00016493       0.01052593      -0.04360532
Pt       5.61442761       3.24149123      22.29206789        3       0.00000000       0.00000617      -0.00000972      -0.02845412
Pt       8.42164155       3.24149130      22.29206812        3       0.00000000      -0.00076924       0.00949004      -0.04156781
Pt       4.21082090       5.67260997      22.29206743        3       0.00000000      -0.00787689      -0.00533836      -0.04146445
Pt       7.01803489       5.67261038      22.29206778        3       0.00000000       0.00901393      -0.00541564      -0.04359379
Pt       9.82524818       5.67261058      22.29206804        3       0.00000000       0.00000705       0.00000264      -0.04670026
Pt      -0.00000057       1.62074568      24.58417368        2       0.00000000      -0.00491324       0.00902167       0.02100221
Pt       2.80721445       1.62074549      24.58417387        2       0.00000000       0.01016932      -0.00008925       0.02118508
Pt       5.61442780       1.62074538      24.58417368        2       0.00000000       0.00290378       0.00693287       0.02090944
Pt       1.40360635       4.05186441      24.58417386        2       0.00000000      -0.00144544      -0.00850532      -0.00937133
Pt       4.21082088       4.05186391      24.58417389        2       0.00000000       0.00433185      -0.00602999       0.02105951
Pt       7.01803505       4.05186405      24.58417404        2       0.00000000      -0.00728746      -0.00083794       0.02094660
Pt       2.80721273       6.48298348      24.58417381        2       0.00000000       0.00792407       0.00295061      -0.00971279
Pt       5.61442805       6.48298330      24.58417394        2       0.00000000      -0.00519128      -0.00876881       0.02079615
Pt       8.42164222       6.48298341      24.58417373        2       0.00000000      -0.00644505       0.00532187      -0.00977458
Pt      -0.00136516      -0.00023332      26.92094431        1       0.00000000      -0.00470986       0.00296615       0.01374078
Pt       2.80807690      -0.00111631      26.92093655        1       0.00000000      -0.00003374      -0.00511811       0.01376813
Pt       5.61365227      -0.01023761      26.91063941        1       0.00000000       0.00577956       0.01324636       0.00772814
Pt       1.40410311       2.43238446      26.92105037        1       0.00000000       0.00481616       0.00271080       0.01320959
Pt       4.16912449       2.40555496      26.91039947        1       0.00000000      -0.00346569       0.00526128       0.00910858
Pt       7.06106341       2.40783876      26.91037136        1       0.00000000      -0.00299013      -0.00595317       0.00895449
Pt       2.79869481       4.86803468      26.91068914        1       0.00000000       0.00861172      -0.01176868       0.00758938
Pt       5.61311538       4.91112017      26.91035152        1       0.00000000       0.00639391       0.00027508       0.00925173
Pt       8.43091452       4.86668997      26.91069210        1       0.00000000      -0.01435754      -0.00159122       0.00759608
O        5.61434801       3.24148986      29.27382072        0       0.50000000      -0.00043226      -0.00008169      -0.02022946
H        5.61449101       3.24150495      28.27851410        0       0.50000000       0.00034230       0.00005018       0.02060300
