38
Lattice="8.421641763931781 0.0 0.0 4.2108208819658905 7.293355709136913 0.0 0.0 0.0 46.87624170604845" Properties=species:S:1:pos:R:3:tags:I:1:initial_magmoms:R:1:forces:R:3 charge=0 spin=0 energy=-194.69044634396397 free_energy=-194.69044634396397 stress="0.009615806862711906 -3.032366180377721e-08 1.267572145025042e-07 -3.032366180377721e-08 0.009616648778319359 -1.2059676919307094e-06 1.267572145025042e-07 -1.2059676919307094e-06 -0.0001316811831202358" pbc="T T T"
Pt      -0.00000001       0.00000015      19.95723445        4       0.00000000       0.00570055       0.00374725      -0.00136053
Pt       2.80721394      -0.00000009      19.95723448        4       0.00000000      -0.00607386       0.00309760      -0.00133168
Pt       5.61442781      -0.00000017      19.95723450        4       0.00000000       0.00073375      -0.00220129       0.01308448
Pt       1.40360720       2.43111836      19.95723436        4       0.00000000       0.00036797      -0.00681531      -0.00137109
Pt       4.21082078       2.43111836      19.95723446        4       0.00000000      -0.00395762      -0.00426714       0.01198695
Pt       7.01803484       2.43111844      19.95723431        4       0.00000000       0.00567414      -0.00129383       0.01199566
Pt       2.80721414       4.86223727      19.95723413        4       0.00000000      -0.00231698       0.00046288       0.01311565
Pt       5.61442797       4.86223736      19.95723433        4       0.00000000      -0.00171421       0.00555949       0.01202558
Pt       8.42164142       4.86223724      19.95723439        4       0.00000000       0.00158044       0.00172521       0.01312808
Pt       1.40360727       0.81037261      22.29206790        3       0.00000000      -0.00000442       0.00001192       0.07144668
Pt       4.21082126       0.81037249      22.29206793        3       0.00000000       0.00870901      -0.00435263      -0.04126725
Pt       7.01803475       0.81037258      22.29206787        3       0.00000000      -0.00923047      -0.00515297      -0.04432568
Pt       2.80721449       3.24149123      22.29206778        3       0.00000000       0.00012561       0.01057554      -0.04427667
Pt       5.61442761       3.24149123      22.29206789        3       0.00000000       0.00000203      -0.00000283      -0.02813400
Pt       8.42164155       3.24149130      22.29206812        3       0.00000000      -0.00060003       0.00964659      -0.04128364
Pt       4.21082090       5.67260997      22.29206743        3       0.00000000      -0.00809217      -0.00529017      -0.04114436
Pt       7.01803489       5.67261038      22.29206778        3       0.00000000       0.00906861      -0.00542200      -0.04421638
Pt       9.82524818       5.67261058      22.29206804        3       0.00000000       0.00001307      -0.00001055      -0.04711912
Pt      -0.00000057       1.62074568      24.58417368        2       0.00000000      -0.00232570       0.00818370       0.03313656
Pt       2.80721445       1.62074549      24.58417387        2       0.00000000       0.00823215      -0.00213723       0.03323652
Pt       5.61442780       1.62074538      24.58417368        2       0.00000000       0.00198437       0.00751957       0.02257407
Pt       1.40360635       4.05186441      24.58417386        2       0.00000000      -0.00296337      -0.01104597      -0.00549890
Pt       4.21082088       4.05186391      24.58417389        2       0.00000000       0.00554705      -0.00538666       0.02289643
Pt       7.01803505       4.05186405      24.58417404        2       0.00000000      -0.00752857      -0.00181814       0.02281950
Pt       2.80721273       6.48298348      24.58417381        2       0.00000000       0.01097380       0.00299862      -0.00566333
Pt       5.61442805       6.48298330      24.58417394        2       0.00000000      -0.00584423      -0.00657818       0.03391071
Pt       8.42164222       6.48298341      24.58417373        2       0.00000000      -0.00802127       0.00799536      -0.00571684
Pt      -0.00244667      -0.00039099      26.92347648        1       0.00000000       0.00703794       0.00368425      -0.00026609
Pt       2.80876102      -0.00192375      26.92348379        1       0.00000000      -0.00672151       0.00421304      -0.00027559
Pt       5.61502988      -0.00991167      26.91070162        1       0.00000000      -0.00192066       0.01095399       0.00790407
Pt       1.40449845       2.43342463      26.92348832        1       0.00000000      -0.00031772      -0.00795333      -0.00022871
Pt       4.16934765       2.40632040      26.91120769        1       0.00000000      -0.00901965      -0.00388559       0.00275731
Pt       7.06027450       2.40762066      26.91118656        1       0.00000000       0.00795583      -0.00578152       0.00265854
Pt       2.79831302       4.86665847      26.91072347        1       0.00000000       0.01046557      -0.00378853       0.00786828
Pt       5.61368578       4.91050710      26.91135157        1       0.00000000       0.00106415       0.00955557       0.00339622
Pt       8.42992112       4.86773405      26.91073113        1       0.00000000      -0.00853040      -0.00714346       0.00786378
O        5.61437739       3.24188894      29.27314189        0       0.50000000      -0.00024692       0.00230127       0.01766229
H        5.61446736       3.24117909      28.27875179        0       0.50000000       0.00019352      -0.00190473      -0.01198707
