38
Lattice="8.421641763931781 0.0 0.0 4.2108208819658905 7.293355709136913 0.0 0.0 0.0 46.87624170604845" Properties=species:S:1:pos:R:3:tags:I:1:initial_magmoms:R:1:forces:R:3 charge=0 spin=0 energy=-194.69038721615635 free_energy=-194.69038721615635 stress="0.0096446443349123 -1.0655720927843504e-07 -1.418441453182595e-08 -1.0655720927843504e-07 0.009645509533584118 -1.2974439869140042e-06 -1.418441453182595e-08 -1.2974439869140042e-06 -7.974212348926812e-05" pbc="T T T"
Pt      -0.00000001       0.00000015      19.95723445        4       0.00000000       0.00570698       0.00377016      -0.00135547
Pt       2.80721394      -0.00000009      19.95723448        4       0.00000000      -0.00609473       0.00308553      -0.00133509
Pt       5.61442781      -0.00000017      19.95723450        4       0.00000000       0.00071226      -0.00190158       0.01313196
Pt       1.40360720       2.43111836      19.95723436        4       0.00000000       0.00038813      -0.00683219      -0.00137262
Pt       4.21082078       2.43111836      19.95723446        4       0.00000000      -0.00398110      -0.00421050       0.01210289
Pt       7.01803484       2.43111844      19.95723431        4       0.00000000       0.00563448      -0.00134743       0.01211188
Pt       2.80721414       4.86223727      19.95723413        4       0.00000000      -0.00204821       0.00033413       0.01316188
Pt       5.61442797       4.86223736      19.95723433        4       0.00000000      -0.00165155       0.00555164       0.01214059
Pt       8.42164142       4.86223724      19.95723439        4       0.00000000       0.00133000       0.00156119       0.01317303
Pt       1.40360727       0.81037261      22.29206790        3       0.00000000      -0.00000175       0.00001081       0.06970891
Pt       4.21082126       0.81037249      22.29206793        3       0.00000000       0.00860071      -0.00464109      -0.04106579
Pt       7.01803475       0.81037258      22.29206787        3       0.00000000      -0.00907581      -0.00541968      -0.04380787
Pt       2.80721449       3.24149123      22.29206778        3       0.00000000      -0.00018569       0.01058097      -0.04381286
Pt       5.61442761       3.24149123      22.29206789        3       0.00000000      -0.00000146      -0.00000334      -0.02668215
Pt       8.42164155       3.24149130      22.29206812        3       0.00000000      -0.00029489       0.00970079      -0.04112605
Pt       4.21082090       5.67260997      22.29206743        3       0.00000000      -0.00829072      -0.00506467      -0.04095709
Pt       7.01803489       5.67261038      22.29206778        3       0.00000000       0.00922316      -0.00516346      -0.04371429
Pt       9.82524818       5.67261058      22.29206804        3       0.00000000       0.00001331      -0.00001885      -0.04967610
Pt      -0.00000057       1.62074568      24.58417368        2       0.00000000      -0.00681460       0.01044433       0.03759841
Pt       2.80721445       1.62074549      24.58417387        2       0.00000000       0.01241111       0.00047849       0.03754954
Pt       5.61442780       1.62074538      24.58417368        2       0.00000000       0.00203501       0.01167710       0.03176127
Pt       1.40360635       4.05186441      24.58417386        2       0.00000000      -0.00233645      -0.01428713       0.00006402
Pt       4.21082088       4.05186391      24.58417389        2       0.00000000       0.00918460      -0.00747189       0.03205978
Pt       7.01803505       4.05186405      24.58417404        2       0.00000000      -0.01116468      -0.00388944       0.03200964
Pt       2.80721273       6.48298348      24.58417381        2       0.00000000       0.01347435       0.00522652      -0.00015234
Pt       5.61442805       6.48298330      24.58417394        2       0.00000000      -0.00561495      -0.01151630       0.03824063
Pt       8.42164222       6.48298341      24.58417373        2       0.00000000      -0.01114806       0.00912265      -0.00022322
Pt       0.00034776       0.00106801      26.92458520        1       0.00000000      -0.01549164      -0.00759685      -0.00372435
Pt       2.80608642      -0.00027488      26.92458911        1       0.00000000       0.01461562      -0.00903815      -0.00369382
Pt       5.61448003      -0.00946765      26.91019663        1       0.00000000       0.00090121       0.00850493       0.00723768
Pt       1.40438484       2.43024671      26.92455061        1       0.00000000       0.00077896       0.01742858      -0.00356053
Pt       4.16930293       2.40636998      26.91413727        1       0.00000000      -0.00479003      -0.00102212      -0.01111488
Pt       7.06024282       2.40759719      26.91414173        1       0.00000000       0.00341332      -0.00369054      -0.01116371
Pt       2.79899158       4.86693975      26.91019764        1       0.00000000       0.00671433      -0.00509002       0.00727716
Pt       5.61374596       4.91058274      26.91431786        1       0.00000000       0.00145641       0.00391355      -0.01032272
Pt       8.42980645       4.86707361      26.91021109        1       0.00000000      -0.00760078      -0.00369680       0.00725051
O        5.61442369       3.24187781      29.27794660        0       0.50000000       0.00001783       0.00237674       0.00568989
H        5.61441533       3.24112717      28.28330670        0       0.50000000      -0.00002428      -0.00186613      -0.00340843
