38
Lattice="8.421641763931781 0.0 0.0 4.2108208819658905 7.293355709136913 0.0 0.0 0.0 46.87624170604845" Properties=species:S:1:pos:R:3:tags:I:1:initial_magmoms:R:1:forces:R:3 charge=0 spin=0 energy=-194.69038721615635 free_energy=-194.69038721615635 stress="0.009644705802202225 -1.0898199320763524e-07 -2.8840734245250133e-08 -1.0898199320763524e-07 0.009645571000874043 -1.3040748854109552e-06 -2.8840734245250133e-08 -1.3040748854109552e-06 -7.970065053086728e-05" pbc="T T T"
Pt      -0.00000001       0.00000015      19.95723445        4       0.00000000       0.00570665       0.00376984      -0.00135485
Pt       2.80721394      -0.00000009      19.95723448        4       0.00000000      -0.00609428       0.00308535      -0.00133471
Pt       5.61442781      -0.00000017      19.95723450        4       0.00000000       0.00071227      -0.00190163       0.01313207
Pt       1.40360720       2.43111836      19.95723436        4       0.00000000       0.00038803      -0.00683174      -0.00137247
Pt       4.21082078       2.43111836      19.95723446        4       0.00000000      -0.00398094      -0.00421034       0.01210279
Pt       7.01803484       2.43111844      19.95723431        4       0.00000000       0.00563402      -0.00134734       0.01211184
Pt       2.80721414       4.86223727      19.95723413        4       0.00000000      -0.00204796       0.00033431       0.01316201
Pt       5.61442797       4.86223736      19.95723433        4       0.00000000      -0.00165155       0.00555139       0.01214083
Pt       8.42164142       4.86223724      19.95723439        4       0.00000000       0.00132997       0.00156094       0.01317323
Pt       1.40360727       0.81037261      22.29206790        3       0.00000000      -0.00000259       0.00001099       0.06969874
Pt       4.21082126       0.81037249      22.29206793        3       0.00000000       0.00859970      -0.00464080      -0.04106421
Pt       7.01803475       0.81037258      22.29206787        3       0.00000000      -0.00907499      -0.00541968      -0.04380590
Pt       2.80721449       3.24149123      22.29206778        3       0.00000000      -0.00018575       0.01058006      -0.04381107
Pt       5.61442761       3.24149123      22.29206789        3       0.00000000      -0.00000085      -0.00000338      -0.02668153
Pt       8.42164155       3.24149130      22.29206812        3       0.00000000      -0.00029500       0.00970011      -0.04112563
Pt       4.21082090       5.67260997      22.29206743        3       0.00000000      -0.00829005      -0.00506378      -0.04095807
Pt       7.01803489       5.67261038      22.29206778        3       0.00000000       0.00922261      -0.00516351      -0.04371225
Pt       9.82524818       5.67261058      22.29206804        3       0.00000000       0.00001332      -0.00001856      -0.04967530
Pt      -0.00000057       1.62074568      24.58417368        2       0.00000000      -0.00681585       0.01044229       0.03759101
Pt       2.80721445       1.62074549      24.58417387        2       0.00000000       0.01240938       0.00048220       0.03754577
Pt       5.61442780       1.62074538      24.58417368        2       0.00000000       0.00203494       0.01167781       0.03177379
Pt       1.40360635       4.05186441      24.58417386        2       0.00000000      -0.00233599      -0.01428330       0.00006566
Pt       4.21082088       4.05186391      24.58417389        2       0.00000000       0.00918869      -0.00747512       0.03206937
Pt       7.01803505       4.05186405      24.58417404        2       0.00000000      -0.01116711      -0.00388970       0.03201864
Pt       2.80721273       6.48298348      24.58417381        2       0.00000000       0.01347249       0.00522570      -0.00015113
Pt       5.61442805       6.48298330      24.58417394        2       0.00000000      -0.00561534      -0.01152194       0.03824097
Pt       8.42164222       6.48298341      24.58417373        2       0.00000000      -0.01114350       0.00912449      -0.00021960
Pt       0.00034790       0.00106773      26.92458395        1       0.00000000      -0.01549167      -0.00759485      -0.00372109
Pt       2.80608633      -0.00027479      26.92458698        1       0.00000000       0.01461615      -0.00903410      -0.00368926
Pt       5.61447960      -0.00946686      26.91019756        1       0.00000000       0.00089962       0.00851187       0.00722509
Pt       1.40438498       2.43024683      26.92454872        1       0.00000000       0.00077854       0.01742983      -0.00355438
Pt       4.16930558       2.40637234      26.91413987        1       0.00000000      -0.00478559      -0.00102603      -0.01113443
Pt       7.06023938       2.40759978      26.91414469        1       0.00000000       0.00340111      -0.00368039      -0.01115580
Pt       2.79899229       4.86693926      26.91019916        1       0.00000000       0.00670887      -0.00509153       0.00727878
Pt       5.61374614       4.91057845      26.91432100        1       0.00000000       0.00146814       0.00390563      -0.01032932
Pt       8.42980625       4.86707292      26.91021229        1       0.00000000      -0.00759958      -0.00370207       0.00725401
O        5.61442471       3.24187947      29.27798088        0       0.50000000       0.00006699       0.00239478       0.00566207
H        5.61441453       3.24112535      28.28334032        0       0.50000000      -0.00007287      -0.00188777      -0.00339562
