38
Lattice="8.421641763931781 0.0 0.0 4.2108208819658905 7.293355709136913 0.0 0.0 0.0 46.87624170604845" Properties=species:S:1:pos:R:3:tags:I:1:initial_magmoms:R:1:forces:R:3 charge=0 spin=0 energy=-194.69044634396397 free_energy=-194.69044634396397 stress="0.009615733288228512 -3.191257391677027e-08 1.441743364694048e-07 -3.191257391677027e-08 0.009616566821932793 -1.2067281431882293e-06 1.441743364694048e-07 -1.2067281431882293e-06 -0.00013176024367567152" pbc="T T T"
Pt      -0.00000001       0.00000015      19.95723445        4       0.00000000       0.00570098       0.00374743      -0.00136100
Pt       2.80721394      -0.00000009      19.95723448        4       0.00000000      -0.00607437       0.00309777      -0.00133180
Pt       5.61442781      -0.00000017      19.95723450        4       0.00000000       0.00073378      -0.00220129       0.01308440
Pt       1.40360720       2.43111836      19.95723436        4       0.00000000       0.00036826      -0.00681583      -0.00137188
Pt       4.21082078       2.43111836      19.95723446        4       0.00000000      -0.00395782      -0.00426745       0.01198701
Pt       7.01803484       2.43111844      19.95723431        4       0.00000000       0.00567437      -0.00129379       0.01199579
Pt       2.80721414       4.86223727      19.95723413        4       0.00000000      -0.00231715       0.00046272       0.01311559
Pt       5.61442797       4.86223736      19.95723433        4       0.00000000      -0.00171449       0.00555974       0.01202584
Pt       8.42164142       4.86223724      19.95723439        4       0.00000000       0.00158033       0.00172540       0.01312798
Pt       1.40360727       0.81037261      22.29206790        3       0.00000000      -0.00000409       0.00001218       0.07145716
Pt       4.21082126       0.81037249      22.29206793        3       0.00000000       0.00870971      -0.00435258      -0.04126901
Pt       7.01803475       0.81037258      22.29206787        3       0.00000000      -0.00923077      -0.00515316      -0.04432689
Pt       2.80721449       3.24149123      22.29206778        3       0.00000000       0.00012553       0.01057670      -0.04427940
Pt       5.61442761       3.24149123      22.29206789        3       0.00000000       0.00000164      -0.00000265      -0.02813416
Pt       8.42164155       3.24149130      22.29206812        3       0.00000000      -0.00059984       0.00964761      -0.04128543
Pt       4.21082090       5.67260997      22.29206743        3       0.00000000      -0.00809280      -0.00529077      -0.04114560
Pt       7.01803489       5.67261038      22.29206778        3       0.00000000       0.00906973      -0.00542177      -0.04421836
Pt       9.82524818       5.67261058      22.29206804        3       0.00000000       0.00001337      -0.00001019      -0.04711968
Pt      -0.00000057       1.62074568      24.58417368        2       0.00000000      -0.00232463       0.00818650       0.03313051
Pt       2.80721445       1.62074549      24.58417387        2       0.00000000       0.00823759      -0.00214032       0.03323494
Pt       5.61442780       1.62074538      24.58417368        2       0.00000000       0.00198313       0.00751921       0.02257056
Pt       1.40360635       4.05186441      24.58417386        2       0.00000000      -0.00296330      -0.01104647      -0.00550051
Pt       4.21082088       4.05186391      24.58417389        2       0.00000000       0.00554721      -0.00538552       0.02289511
Pt       7.01803505       4.05186405      24.58417404        2       0.00000000      -0.00752866      -0.00181685       0.02281766
Pt       2.80721273       6.48298348      24.58417381        2       0.00000000       0.01097056       0.00299899      -0.00566125
Pt       5.61442805       6.48298330      24.58417394        2       0.00000000      -0.00584276      -0.00658010       0.03390848
Pt       8.42164222       6.48298341      24.58417373        2       0.00000000      -0.00802536       0.00799443      -0.00571643
Pt      -0.00244514      -0.00039053      26.92347725        1       0.00000000       0.00702301       0.00368001      -0.00025585
Pt       2.80875955      -0.00192313      26.92348504        1       0.00000000      -0.00670875       0.00420502      -0.00027835
Pt       5.61502994      -0.00991199      26.91070168        1       0.00000000      -0.00191042       0.01095033       0.00790127
Pt       1.40449834       2.43342309      26.92348930        1       0.00000000      -0.00031903      -0.00793878      -0.00022027
Pt       4.16934317       2.40631738      26.91120502        1       0.00000000      -0.00901666      -0.00388102       0.00275599
Pt       7.06027935       2.40761794      26.91118429        1       0.00000000       0.00796573      -0.00579081       0.00263984
Pt       2.79831233       4.86665875      26.91072267        1       0.00000000       0.01046199      -0.00378398       0.00786558
Pt       5.61368569       4.91051294      26.91134979        1       0.00000000       0.00105339       0.00955432       0.00338633
Pt       8.42992172       4.86773454      26.91073076        1       0.00000000      -0.00853697      -0.00714487       0.00785541
O        5.61437719       3.24189000      29.27310377        0       0.50000000      -0.00029684       0.00230104       0.01779088
H        5.61446772       3.24117815      28.27871509        0       0.50000000       0.00024444      -0.00190126      -0.01207045
