38
Lattice="8.421641763931781 0.0 0.0 4.2108208819658905 7.293355709136913 0.0 0.0 0.0 46.87624170604845" Properties=species:S:1:pos:R:3:tags:I:1:initial_magmoms:R:1:forces:R:3 charge=0 spin=0 energy=-194.69032427365147 free_energy=-194.69032427365147 stress="0.009629334323108196 5.134972980158636e-07 1.6022889894884429e-06 5.134972980158636e-07 0.009630878455936909 -2.2789236027165316e-06 1.6022889894884429e-06 -2.2789236027165316e-06 -0.00010869156540138647" pbc="T T T"
Pt      -0.00000001       0.00000015      19.95723445        4       0.00000000       0.00566478       0.00371151      -0.00132468
Pt       2.80721394      -0.00000009      19.95723448        4       0.00000000      -0.00605158       0.00310376      -0.00122676
Pt       5.61442781      -0.00000017      19.95723450        4       0.00000000       0.00075835      -0.00243764       0.01308183
Pt       1.40360720       2.43111836      19.95723436        4       0.00000000       0.00035093      -0.00676796      -0.00134308
Pt       4.21082078       2.43111836      19.95723446        4       0.00000000      -0.00394992      -0.00431390       0.01195506
Pt       7.01803484       2.43111844      19.95723431        4       0.00000000       0.00571451      -0.00126667       0.01196080
Pt       2.80721414       4.86223727      19.95723413        4       0.00000000      -0.00253466       0.00056400       0.01310111
Pt       5.61442797       4.86223736      19.95723433        4       0.00000000      -0.00175987       0.00557800       0.01199272
Pt       8.42164142       4.86223724      19.95723439        4       0.00000000       0.00177692       0.00185164       0.01312250
Pt       1.40360727       0.81037261      22.29206790        3       0.00000000      -0.00001306       0.00001425       0.07227313
Pt       4.21082126       0.81037249      22.29206793        3       0.00000000       0.00886593      -0.00384305      -0.04140938
Pt       7.01803475       0.81037258      22.29206787        3       0.00000000      -0.00946269      -0.00475832      -0.04466827
Pt       2.80721449       3.24149123      22.29206778        3       0.00000000       0.00057407       0.01056380      -0.04458095
Pt       5.61442761       3.24149123      22.29206789        3       0.00000000       0.00000654      -0.00000492      -0.03029998
Pt       8.42164155       3.24149130      22.29206812        3       0.00000000      -0.00109729       0.00952080      -0.04146134
Pt       4.21082090       5.67260997      22.29206743        3       0.00000000      -0.00773834      -0.00565998      -0.04129445
Pt       7.01803489       5.67261038      22.29206778        3       0.00000000       0.00883006      -0.00583312      -0.04452166
Pt       9.82524818       5.67261058      22.29206804        3       0.00000000       0.00001412      -0.00000764      -0.04481199
Pt      -0.00000057       1.62074568      24.58417368        2       0.00000000       0.00177072       0.00617701       0.03130488
Pt       2.80721445       1.62074549      24.58417387        2       0.00000000       0.00505231      -0.00434851       0.03238864
Pt       5.61442780       1.62074538      24.58417368        2       0.00000000       0.00195392       0.00179462       0.02434665
Pt       1.40360635       4.05186441      24.58417386        2       0.00000000      -0.00329951      -0.00603244       0.00171667
Pt       4.21082088       4.05186391      24.58417389        2       0.00000000       0.00054697      -0.00273180       0.02475200
Pt       7.01803505       4.05186405      24.58417404        2       0.00000000      -0.00280197       0.00142620       0.02455708
Pt       2.80721273       6.48298348      24.58417381        2       0.00000000       0.00678322       0.00020181       0.00157420
Pt       5.61442805       6.48298330      24.58417394        2       0.00000000      -0.00612160      -0.00277558       0.03315227
Pt       8.42164222       6.48298341      24.58417373        2       0.00000000      -0.00346498       0.00579230       0.00146687
Pt      -0.00421467      -0.00108224      26.92343615        1       0.00000000       0.01874424       0.00840193      -0.00088388
Pt       2.81025485      -0.00312732      26.92342463        1       0.00000000      -0.01665604       0.01202867      -0.00092120
Pt       5.61525285      -0.01062885      26.91406152        1       0.00000000      -0.00324041       0.01506399      -0.00635221
Pt       1.40479788       2.43530569      26.92344684        1       0.00000000      -0.00209676      -0.02047754      -0.00083376
Pt       4.16898680       2.40595335      26.90968235        1       0.00000000      -0.00342089      -0.00021179       0.01235452
Pt       7.06084298       2.40747210      26.90946208        1       0.00000000       0.00239136      -0.00289754       0.01116443
Pt       2.79758109       4.86683625      26.91407247        1       0.00000000       0.01460671      -0.00475299      -0.00631175
Pt       5.61350056       4.91099615      26.90983216        1       0.00000000       0.00132657       0.00284195       0.01318658
Pt       8.43043122       4.86827807      26.91406860        1       0.00000000      -0.01143583      -0.01028992      -0.00627513
O        5.61385659       3.24226587      29.27441155        0       0.50000000      -0.00315801       0.00435445       0.01367918
H        5.61486684       3.24089430      28.28012083        0       0.50000000       0.00257107      -0.00357922      -0.01461073
