38
Lattice="8.421641763931781 0.0 0.0 4.2108208819658905 7.293355709136913 0.0 0.0 0.0 46.87624170604845" Properties=species:S:1:pos:R:3:tags:I:1:initial_magmoms:R:1:forces:R:3 charge=0 spin=0 energy=-194.69032427365147 free_energy=-194.69032427365147 stress="0.009629420936107635 5.1709213266804e-07 1.635219632589724e-06 5.1709213266804e-07 0.009630972519516945 -2.2901949705556035e-06 1.635219632589724e-06 -2.2901949705556035e-06 -0.00010894003935391083" pbc="T T T"
Pt      -0.00000001       0.00000015      19.95723445        4       0.00000000       0.00566493       0.00371181      -0.00132421
Pt       2.80721394      -0.00000009      19.95723448        4       0.00000000      -0.00605213       0.00310373      -0.00122574
Pt       5.61442781      -0.00000017      19.95723450        4       0.00000000       0.00075835      -0.00243768       0.01308196
Pt       1.40360720       2.43111836      19.95723436        4       0.00000000       0.00035121      -0.00676836      -0.00134217
Pt       4.21082078       2.43111836      19.95723446        4       0.00000000      -0.00394932      -0.00431337       0.01195537
Pt       7.01803484       2.43111844      19.95723431        4       0.00000000       0.00571343      -0.00126648       0.01196114
Pt       2.80721414       4.86223727      19.95723413        4       0.00000000      -0.00253463       0.00056420       0.01310113
Pt       5.61442797       4.86223736      19.95723433        4       0.00000000      -0.00175968       0.00557714       0.01199301
Pt       8.42164142       4.86223724      19.95723439        4       0.00000000       0.00177718       0.00185175       0.01312240
Pt       1.40360727       0.81037261      22.29206790        3       0.00000000      -0.00001235       0.00001404       0.07226282
Pt       4.21082126       0.81037249      22.29206793        3       0.00000000       0.00886616      -0.00384219      -0.04140890
Pt       7.01803475       0.81037258      22.29206787        3       0.00000000      -0.00946295      -0.00475656      -0.04466629
Pt       2.80721449       3.24149123      22.29206778        3       0.00000000       0.00057592       0.01056311      -0.04457974
Pt       5.61442761       3.24149123      22.29206789        3       0.00000000       0.00000611      -0.00000449      -0.03029876
Pt       8.42164155       3.24149130      22.29206812        3       0.00000000      -0.00109711       0.00952032      -0.04146008
Pt       4.21082090       5.67260997      22.29206743        3       0.00000000      -0.00773772      -0.00566123      -0.04129267
Pt       7.01803489       5.67261038      22.29206778        3       0.00000000       0.00882883      -0.00583393      -0.04452147
Pt       9.82524818       5.67261058      22.29206804        3       0.00000000       0.00001398      -0.00000784      -0.04480790
Pt      -0.00000057       1.62074568      24.58417368        2       0.00000000       0.00178866       0.00616470       0.03125855
Pt       2.80721445       1.62074549      24.58417387        2       0.00000000       0.00504139      -0.00435891       0.03234529
Pt       5.61442780       1.62074538      24.58417368        2       0.00000000       0.00195435       0.00180775       0.02437101
Pt       1.40360635       4.05186441      24.58417386        2       0.00000000      -0.00330280      -0.00602899       0.00170161
Pt       4.21082088       4.05186391      24.58417389        2       0.00000000       0.00056089      -0.00273675       0.02477838
Pt       7.01803505       4.05186405      24.58417404        2       0.00000000      -0.00281902       0.00142312       0.02458221
Pt       2.80721273       6.48298348      24.58417381        2       0.00000000       0.00677543       0.00020106       0.00156718
Pt       5.61442805       6.48298330      24.58417394        2       0.00000000      -0.00611806      -0.00276036       0.03310908
Pt       8.42164222       6.48298341      24.58417373        2       0.00000000      -0.00346111       0.00579346       0.00145278
Pt      -0.00421669      -0.00108298      26.92343211        1       0.00000000       0.01874713       0.00840817      -0.00085689
Pt       2.81025661      -0.00312849      26.92342046        1       0.00000000      -0.01666524       0.01203314      -0.00089889
Pt       5.61525259      -0.01062745      26.91405975        1       0.00000000      -0.00322992       0.01508112      -0.00634150
Pt       1.40479777       2.43530772      26.92344309        1       0.00000000      -0.00210080      -0.02048908      -0.00081088
Pt       4.16897963       2.40594951      26.90968379        1       0.00000000      -0.00324805      -0.00009791       0.01241875
Pt       7.06085031       2.40746776      26.90946217        1       0.00000000       0.00223149      -0.00280999       0.01119318
Pt       2.79758212       4.86683553      26.91407074        1       0.00000000       0.01462749      -0.00475326      -0.00629171
Pt       5.61350054       4.91100439      26.90983313        1       0.00000000       0.00131462       0.00263467       0.01323779
Pt       8.43043048       4.86827737      26.91406690        1       0.00000000      -0.01145875      -0.01030533      -0.00626008
O        5.61385332       3.24226677      29.27450382        0       0.50000000      -0.00324496       0.00438833       0.01445738
H        5.61486986       3.24089346      28.28023827        0       0.50000000       0.00265703      -0.00360905      -0.01556336
