38
Lattice="8.421641763931781 0.0 0.0 4.2108208819658905 7.293355709136913 0.0 0.0 0.0 46.87624170604845" Properties=species:S:1:pos:R:3:tags:I:1:initial_magmoms:R:1:forces:R:3 charge=0 spin=0 energy=-194.69032236630284 free_energy=-194.69032236630284 stress="0.009629507549107075 5.123889081914967e-07 1.6107388773889397e-06 5.123889081914967e-07 0.009631062857806683 -2.2840918063593563e-06 1.6107388773889397e-06 -2.2840918063593563e-06 -0.00010941718937829137" pbc="T T T"
Pt      -0.00000001       0.00000015      19.95723445        4       0.00000000       0.00566591       0.00371286      -0.00132277
Pt       2.80721394      -0.00000009      19.95723448        4       0.00000000      -0.00605332       0.00310417      -0.00122489
Pt       5.61442781      -0.00000017      19.95723450        4       0.00000000       0.00075835      -0.00243810       0.01308213
Pt       1.40360720       2.43111836      19.95723436        4       0.00000000       0.00035133      -0.00676928      -0.00134156
Pt       4.21082078       2.43111836      19.95723446        4       0.00000000      -0.00394874      -0.00431285       0.01195593
Pt       7.01803484       2.43111844      19.95723431        4       0.00000000       0.00571284      -0.00126616       0.01196176
Pt       2.80721414       4.86223727      19.95723413        4       0.00000000      -0.00253491       0.00056464       0.01310113
Pt       5.61442797       4.86223736      19.95723433        4       0.00000000      -0.00175955       0.00557605       0.01199371
Pt       8.42164142       4.86223724      19.95723439        4       0.00000000       0.00177779       0.00185174       0.01312229
Pt       1.40360727       0.81037261      22.29206790        3       0.00000000      -0.00001278       0.00001389       0.07225616
Pt       4.21082126       0.81037249      22.29206793        3       0.00000000       0.00886766      -0.00384110      -0.04140778
Pt       7.01803475       0.81037258      22.29206787        3       0.00000000      -0.00946444      -0.00475436      -0.04466420
Pt       2.80721449       3.24149123      22.29206778        3       0.00000000       0.00057808       0.01056285      -0.04457964
Pt       5.61442761       3.24149123      22.29206789        3       0.00000000       0.00000644      -0.00000479      -0.03029343
Pt       8.42164155       3.24149130      22.29206812        3       0.00000000      -0.00109891       0.00952122      -0.04146068
Pt       4.21082090       5.67260997      22.29206743        3       0.00000000      -0.00773752      -0.00566240      -0.04129348
Pt       7.01803489       5.67261038      22.29206778        3       0.00000000       0.00882797      -0.00583608      -0.04452046
Pt       9.82524818       5.67261058      22.29206804        3       0.00000000       0.00001405      -0.00000764      -0.04480618
Pt      -0.00000057       1.62074568      24.58417368        2       0.00000000       0.00181312       0.00615172       0.03119540
Pt       2.80721445       1.62074549      24.58417387        2       0.00000000       0.00501004      -0.00437070       0.03227817
Pt       5.61442780       1.62074538      24.58417368        2       0.00000000       0.00195622       0.00183503       0.02441459
Pt       1.40360635       4.05186441      24.58417386        2       0.00000000      -0.00330214      -0.00602977       0.00168083
Pt       4.21082088       4.05186391      24.58417389        2       0.00000000       0.00058420      -0.00275469       0.02481961
Pt       7.01803505       4.05186405      24.58417404        2       0.00000000      -0.00284306       0.00140916       0.02462449
Pt       2.80721273       6.48298348      24.58417381        2       0.00000000       0.00677770       0.00019900       0.00154490
Pt       5.61442805       6.48298330      24.58417394        2       0.00000000      -0.00611982      -0.00273137       0.03304949
Pt       8.42164222       6.48298341      24.58417373        2       0.00000000      -0.00346026       0.00579297       0.00143480
Pt      -0.00421829      -0.00108404      26.92342998        1       0.00000000       0.01875442       0.00840559      -0.00083155
Pt       2.81025813      -0.00312920      26.92341865        1       0.00000000      -0.01666733       0.01203205      -0.00086997
Pt       5.61525222      -0.01062662      26.91405593        1       0.00000000      -0.00323424       0.01512634      -0.00631404
Pt       1.40479745       2.43530934      26.92344097        1       0.00000000      -0.00209032      -0.02048981      -0.00078420
Pt       4.16896161       2.40593920      26.90968256        1       0.00000000      -0.00296038       0.00006221       0.01247259
Pt       7.06086810       2.40745738      26.90946201        1       0.00000000       0.00192630      -0.00264096       0.01127429
Pt       2.79758316       4.86683563      26.91406647        1       0.00000000       0.01466125      -0.00478239      -0.00626394
Pt       5.61350076       4.91102449      26.90983365        1       0.00000000       0.00132643       0.00231330       0.01329763
Pt       8.43043034       4.86827651      26.91406248        1       0.00000000      -0.01149575      -0.01031946      -0.00622789
O        5.61385684       3.24226933      29.27461654        0       0.50000000      -0.00318655       0.00436224       0.01592854
H        5.61486682       3.24089128      28.28039989        0       0.50000000       0.00260001      -0.00358495      -0.01728163
