38
Lattice="8.421641763931781 0.0 0.0 4.2108208819658905 7.293355709136913 0.0 0.0 0.0 46.87624170604845" Properties=species:S:1:pos:R:3:tags:I:1:initial_magmoms:R:1:forces:R:3 charge=0 spin=0 energy=-194.69036432797276 free_energy=-194.69036432797276 stress="0.0095908734947443 2.8224755865835505e-09 2.49975983024342e-07 2.8224755865835505e-09 0.009591009467840195 -7.83564146900062e-09 2.49975983024342e-07 -7.83564146900062e-09 -0.00015931105008348823" pbc="T T T"
Pt      -0.00000001       0.00000015      19.95723445        4       0.00000000       0.00566611       0.00377131      -0.00139906
Pt       2.80721394      -0.00000009      19.95723448        4       0.00000000      -0.00607934       0.00305225      -0.00136601
Pt       5.61442781      -0.00000017      19.95723450        4       0.00000000       0.00081233      -0.00214588       0.01306428
Pt       1.40360720       2.43111836      19.95723436        4       0.00000000       0.00040697      -0.00681741      -0.00135568
Pt       4.21082078       2.43111836      19.95723446        4       0.00000000      -0.00402819      -0.00417888       0.01199397
Pt       7.01803484       2.43111844      19.95723431        4       0.00000000       0.00563271      -0.00139823       0.01200351
Pt       2.80721414       4.86223727      19.95723413        4       0.00000000      -0.00230176       0.00037272       0.01310238
Pt       5.61442797       4.86223736      19.95723433        4       0.00000000      -0.00160314       0.00557635       0.01203050
Pt       8.42164142       4.86223724      19.95723439        4       0.00000000       0.00149228       0.00176685       0.01311695
Pt       1.40360727       0.81037261      22.29206790        3       0.00000000      -0.00000227       0.00000387       0.07111725
Pt       4.21082126       0.81037249      22.29206793        3       0.00000000       0.00865060      -0.00414011      -0.04159629
Pt       7.01803475       0.81037258      22.29206787        3       0.00000000      -0.00919273      -0.00510949      -0.04369198
Pt       2.80721449       3.24149123      22.29206778        3       0.00000000       0.00016578       0.01052603      -0.04360266
Pt       5.61442761       3.24149123      22.29206789        3       0.00000000       0.00000518      -0.00000934      -0.02845674
Pt       8.42164155       3.24149130      22.29206812        3       0.00000000      -0.00076859       0.00949040      -0.04156725
Pt       4.21082090       5.67260997      22.29206743        3       0.00000000      -0.00787667      -0.00533892      -0.04146126
Pt       7.01803489       5.67261038      22.29206778        3       0.00000000       0.00901332      -0.00541559      -0.04359293
Pt       9.82524818       5.67261058      22.29206804        3       0.00000000       0.00000727       0.00000334      -0.04669992
Pt      -0.00000057       1.62074568      24.58417368        2       0.00000000      -0.00490041       0.00901011       0.02098709
Pt       2.80721445       1.62074549      24.58417387        2       0.00000000       0.01016006      -0.00009953       0.02116723
Pt       5.61442780       1.62074538      24.58417368        2       0.00000000       0.00290397       0.00692776       0.02090326
Pt       1.40360635       4.05186441      24.58417386        2       0.00000000      -0.00144579      -0.00850443      -0.00936529
Pt       4.21082088       4.05186391      24.58417389        2       0.00000000       0.00432766      -0.00602388       0.02105928
Pt       7.01803505       4.05186405      24.58417404        2       0.00000000      -0.00728804      -0.00083263       0.02094141
Pt       2.80721273       6.48298348      24.58417381        2       0.00000000       0.00792270       0.00295170      -0.00969868
Pt       5.61442805       6.48298330      24.58417394        2       0.00000000      -0.00518984      -0.00875592       0.02078097
Pt       8.42164222       6.48298341      24.58417373        2       0.00000000      -0.00644436       0.00532432      -0.00977060
Pt      -0.00136493      -0.00023339      26.92094519        1       0.00000000      -0.00471536       0.00296652       0.01373113
Pt       2.80807668      -0.00111649      26.92093704        1       0.00000000      -0.00003127      -0.00511754       0.01376428
Pt       5.61365248      -0.01023718      26.91064039        1       0.00000000       0.00578460       0.01324315       0.00772254
Pt       1.40410295       2.43238420      26.92105046        1       0.00000000       0.00481344       0.00270957       0.01320755
Pt       4.16912709       2.40555636      26.91039751        1       0.00000000      -0.00343133       0.00529483       0.00916068
Pt       7.06106156       2.40784019      26.91036879        1       0.00000000      -0.00301843      -0.00594172       0.00898159
Pt       2.79869534       4.86803428      26.91068989        1       0.00000000       0.00861915      -0.01176504       0.00758115
Pt       5.61311512       4.91111764      26.91034944        1       0.00000000       0.00638164       0.00022358       0.00929552
Pt       8.43091381       4.86668994      26.91069255        1       0.00000000      -0.01435800      -0.00159313       0.00759707
O        5.61434633       3.24148958      29.27386976        0       0.50000000      -0.00049419      -0.00004753      -0.02030758
H        5.61449244       3.24150525      28.27856363        0       0.50000000       0.00040373       0.00002054       0.02062229
