38
Lattice="8.421641763931781 0.0 0.0 4.2108208819658905 7.293355709136913 0.0 0.0 0.0 46.87624170604845" Properties=species:S:1:pos:R:3:tags:I:1:initial_magmoms:R:1:forces:R:3 charge=0 spin=0 energy=-194.69038530880772 free_energy=-194.69038530880772 stress="0.00964470487087965 -1.0968624053475651e-07 -1.9708339848989453e-08 -1.0968624053475651e-07 0.009645570069551468 -1.315612507823971e-06 -1.9708339848989453e-08 -1.315612507823971e-06 -7.96795793576166e-05" pbc="T T T"
Pt      -0.00000001       0.00000015      19.95723445        4       0.00000000       0.00570670       0.00376992      -0.00135521
Pt       2.80721394      -0.00000009      19.95723448        4       0.00000000      -0.00609424       0.00308529      -0.00133488
Pt       5.61442781      -0.00000017      19.95723450        4       0.00000000       0.00071239      -0.00190155       0.01313211
Pt       1.40360720       2.43111836      19.95723436        4       0.00000000       0.00038795      -0.00683190      -0.00137260
Pt       4.21082078       2.43111836      19.95723446        4       0.00000000      -0.00398097      -0.00421045       0.01210289
Pt       7.01803484       2.43111844      19.95723431        4       0.00000000       0.00563415      -0.00134746       0.01211169
Pt       2.80721414       4.86223727      19.95723413        4       0.00000000      -0.00204819       0.00033423       0.01316194
Pt       5.61442797       4.86223736      19.95723433        4       0.00000000      -0.00165155       0.00555139       0.01214064
Pt       8.42164142       4.86223724      19.95723439        4       0.00000000       0.00133005       0.00156101       0.01317293
Pt       1.40360727       0.81037261      22.29206790        3       0.00000000      -0.00000223       0.00001078       0.06970119
Pt       4.21082126       0.81037249      22.29206793        3       0.00000000       0.00859964      -0.00464037      -0.04106509
Pt       7.01803475       0.81037258      22.29206787        3       0.00000000      -0.00907533      -0.00541906      -0.04380671
Pt       2.80721449       3.24149123      22.29206778        3       0.00000000      -0.00018501       0.01058054      -0.04381199
Pt       5.61442761       3.24149123      22.29206789        3       0.00000000      -0.00000148      -0.00000286      -0.02668119
Pt       8.42164155       3.24149130      22.29206812        3       0.00000000      -0.00029521       0.00970027      -0.04112458
Pt       4.21082090       5.67260997      22.29206743        3       0.00000000      -0.00828968      -0.00506502      -0.04095756
Pt       7.01803489       5.67261038      22.29206778        3       0.00000000       0.00922238      -0.00516365      -0.04371233
Pt       9.82524818       5.67261058      22.29206804        3       0.00000000       0.00001404      -0.00001846      -0.04967443
Pt      -0.00000057       1.62074568      24.58417368        2       0.00000000      -0.00681479       0.01043970       0.03759144
Pt       2.80721445       1.62074549      24.58417387        2       0.00000000       0.01241296       0.00047480       0.03755272
Pt       5.61442780       1.62074538      24.58417368        2       0.00000000       0.00203509       0.01167670       0.03176285
Pt       1.40360635       4.05186441      24.58417386        2       0.00000000      -0.00233809      -0.01428221       0.00006976
Pt       4.21082088       4.05186391      24.58417389        2       0.00000000       0.00918675      -0.00747060       0.03206280
Pt       7.01803505       4.05186405      24.58417404        2       0.00000000      -0.01116362      -0.00388627       0.03201441
Pt       2.80721273       6.48298348      24.58417381        2       0.00000000       0.01346958       0.00522753      -0.00015142
Pt       5.61442805       6.48298330      24.58417394        2       0.00000000      -0.00561384      -0.01151785       0.03824076
Pt       8.42164222       6.48298341      24.58417373        2       0.00000000      -0.01114565       0.00912338      -0.00021484
Pt       0.00034706       0.00106758      26.92458364        1       0.00000000      -0.01548687      -0.00759127      -0.00371933
Pt       2.80608680      -0.00027517      26.92458837        1       0.00000000       0.01461443      -0.00902846      -0.00370016
Pt       5.61448002      -0.00946643      26.91019742        1       0.00000000       0.00090038       0.00849365       0.00723204
Pt       1.40438492       2.43024721      26.92454889        1       0.00000000       0.00077867       0.01742604      -0.00355625
Pt       4.16930568       2.40637199      26.91413878        1       0.00000000      -0.00479460      -0.00102020      -0.01111818
Pt       7.06023971       2.40759862      26.91414343        1       0.00000000       0.00340736      -0.00367316      -0.01114630
Pt       2.79899268       4.86693963      26.91019909        1       0.00000000       0.00670136      -0.00508744       0.00728179
Pt       5.61374619       4.91057946      26.91431925        1       0.00000000       0.00146187       0.00389057      -0.01030273
Pt       8.42980558       4.86707296      26.91021301        1       0.00000000      -0.00759525      -0.00369873       0.00724177
O        5.61442394       3.24187803      29.27797425        0       0.50000000       0.00003475       0.00243107       0.00563332
H        5.61441506       3.24112669      28.28333466        0       0.50000000      -0.00003380      -0.00191995      -0.00340109
