38
Lattice="8.421641763931781 0.0 0.0 4.2108208819658905 7.293355709136913 0.0 0.0 0.0 46.87624170604845" Properties=species:S:1:pos:R:3:tags:I:1:initial_magmoms:R:1:forces:R:3 charge=0 spin=0 energy=-194.69036432797276 free_energy=-194.69036432797276 stress="0.009590857662260532 2.3539041826836637e-09 2.4356293693017506e-07 2.3539041826836637e-09 0.009590987116098404 -6.60697885290773e-10 2.4356293693017506e-07 -6.60697885290773e-10 -0.00015931556117720902" pbc="T T T"
Pt      -0.00000001       0.00000015      19.95723445        4       0.00000000       0.00566619       0.00377141      -0.00139940
Pt       2.80721394      -0.00000009      19.95723448        4       0.00000000      -0.00607976       0.00305233      -0.00136613
Pt       5.61442781      -0.00000017      19.95723450        4       0.00000000       0.00081244      -0.00214610       0.01306400
Pt       1.40360720       2.43111836      19.95723436        4       0.00000000       0.00040711      -0.00681745      -0.00135576
Pt       4.21082078       2.43111836      19.95723446        4       0.00000000      -0.00402845      -0.00417893       0.01199403
Pt       7.01803484       2.43111844      19.95723431        4       0.00000000       0.00563288      -0.00139804       0.01200347
Pt       2.80721414       4.86223727      19.95723413        4       0.00000000      -0.00230173       0.00037278       0.01310202
Pt       5.61442797       4.86223736      19.95723433        4       0.00000000      -0.00160309       0.00557666       0.01203067
Pt       8.42164142       4.86223724      19.95723439        4       0.00000000       0.00149223       0.00176695       0.01311708
Pt       1.40360727       0.81037261      22.29206790        3       0.00000000      -0.00000291       0.00000368       0.07112186
Pt       4.21082126       0.81037249      22.29206793        3       0.00000000       0.00865081      -0.00414009      -0.04159563
Pt       7.01803475       0.81037258      22.29206787        3       0.00000000      -0.00919258      -0.00510991      -0.04369338
Pt       2.80721449       3.24149123      22.29206778        3       0.00000000       0.00016591       0.01052597      -0.04360374
Pt       5.61442761       3.24149123      22.29206789        3       0.00000000       0.00000581      -0.00000957      -0.02845634
Pt       8.42164155       3.24149130      22.29206812        3       0.00000000      -0.00076958       0.00949070      -0.04156783
Pt       4.21082090       5.67260997      22.29206743        3       0.00000000      -0.00787701      -0.00533915      -0.04146305
Pt       7.01803489       5.67261038      22.29206778        3       0.00000000       0.00901343      -0.00541620      -0.04359279
Pt       9.82524818       5.67261058      22.29206804        3       0.00000000       0.00000700       0.00000307      -0.04670060
Pt      -0.00000057       1.62074568      24.58417368        2       0.00000000      -0.00489918       0.00901198       0.02098571
Pt       2.80721445       1.62074549      24.58417387        2       0.00000000       0.01016145      -0.00009839       0.02117284
Pt       5.61442780       1.62074538      24.58417368        2       0.00000000       0.00290206       0.00692615       0.02090244
Pt       1.40360635       4.05186441      24.58417386        2       0.00000000      -0.00144430      -0.00850407      -0.00936671
Pt       4.21082088       4.05186391      24.58417389        2       0.00000000       0.00432608      -0.00602663       0.02105507
Pt       7.01803505       4.05186405      24.58417404        2       0.00000000      -0.00728572      -0.00083284       0.02093753
Pt       2.80721273       6.48298348      24.58417381        2       0.00000000       0.00792393       0.00295165      -0.00970180
Pt       5.61442805       6.48298330      24.58417394        2       0.00000000      -0.00518961      -0.00875508       0.02078474
Pt       8.42164222       6.48298341      24.58417373        2       0.00000000      -0.00644599       0.00532457      -0.00976864
Pt      -0.00136511      -0.00023339      26.92094572        1       0.00000000      -0.00471198       0.00296530       0.01373217
Pt       2.80807658      -0.00111634      26.92093767        1       0.00000000      -0.00003017      -0.00511952       0.01375798
Pt       5.61365252      -0.01023752      26.91064048        1       0.00000000       0.00578066       0.01324689       0.00772025
Pt       1.40410339       2.43238423      26.92105169        1       0.00000000       0.00480997       0.00271092       0.01321016
Pt       4.16912532       2.40555524      26.91039624        1       0.00000000      -0.00342572       0.00528898       0.00916172
Pt       7.06106337       2.40783906      26.91036631        1       0.00000000      -0.00302474      -0.00593638       0.00899433
Pt       2.79869487       4.86803463      26.91068971        1       0.00000000       0.00861369      -0.01176846       0.00758278
Pt       5.61311488       4.91111960      26.91034654        1       0.00000000       0.00639106       0.00023031       0.00929446
Pt       8.43091457       4.86669024      26.91069312        1       0.00000000      -0.01435692      -0.00159063       0.00759896
O        5.61434522       3.24148876      29.27385555        0       0.50000000      -0.00047220      -0.00007100      -0.02030571
H        5.61449342       3.24150589      28.27854843        0       0.50000000       0.00037881       0.00003839       0.02061351
