38
Lattice="8.421641763931781 0.0 0.0 4.2108208819658905 7.293355709136913 0.0 0.0 0.0 46.87624170604845" Properties=species:S:1:pos:R:3:tags:I:1:initial_magmoms:R:1:forces:R:3 charge=0 spin=0 energy=-194.69038149411045 free_energy=-194.69038149411045 stress="0.009644705802202225 -1.0805221251075636e-07 2.8264501850117085e-10 -1.0805221251075636e-07 0.009645565412938595 -1.3005794698983664e-06 2.8264501850117085e-10 -1.3005794698983664e-06 -7.963981624925509e-05" pbc="T T T"
Pt      -0.00000001       0.00000015      19.95723445        4       0.00000000       0.00570662       0.00376981      -0.00135534
Pt       2.80721394      -0.00000009      19.95723448        4       0.00000000      -0.00609435       0.00308533      -0.00133471
Pt       5.61442781      -0.00000017      19.95723450        4       0.00000000       0.00071228      -0.00190137       0.01313207
Pt       1.40360720       2.43111836      19.95723436        4       0.00000000       0.00038807      -0.00683172      -0.00137249
Pt       4.21082078       2.43111836      19.95723446        4       0.00000000      -0.00398116      -0.00421058       0.01210277
Pt       7.01803484       2.43111844      19.95723431        4       0.00000000       0.00563410      -0.00134727       0.01211180
Pt       2.80721414       4.86223727      19.95723413        4       0.00000000      -0.00204801       0.00033426       0.01316167
Pt       5.61442797       4.86223736      19.95723433        4       0.00000000      -0.00165154       0.00555143       0.01214072
Pt       8.42164142       4.86223724      19.95723439        4       0.00000000       0.00132995       0.00156113       0.01317284
Pt       1.40360727       0.81037261      22.29206790        3       0.00000000      -0.00000173       0.00001113       0.06970178
Pt       4.21082126       0.81037249      22.29206793        3       0.00000000       0.00859980      -0.00464035      -0.04106441
Pt       7.01803475       0.81037258      22.29206787        3       0.00000000      -0.00907506      -0.00541890      -0.04380574
Pt       2.80721449       3.24149123      22.29206778        3       0.00000000      -0.00018475       0.01057992      -0.04381099
Pt       5.61442761       3.24149123      22.29206789        3       0.00000000      -0.00000146      -0.00000343      -0.02668307
Pt       8.42164155       3.24149130      22.29206812        3       0.00000000      -0.00029458       0.00969981      -0.04112508
Pt       4.21082090       5.67260997      22.29206743        3       0.00000000      -0.00828945      -0.00506473      -0.04095676
Pt       7.01803489       5.67261038      22.29206778        3       0.00000000       0.00922276      -0.00516313      -0.04371361
Pt       9.82524818       5.67261058      22.29206804        3       0.00000000       0.00001342      -0.00001867      -0.04967541
Pt      -0.00000057       1.62074568      24.58417368        2       0.00000000      -0.00681507       0.01044595       0.03759566
Pt       2.80721445       1.62074549      24.58417387        2       0.00000000       0.01241415       0.00047889       0.03754948
Pt       5.61442780       1.62074538      24.58417368        2       0.00000000       0.00203473       0.01167600       0.03176649
Pt       1.40360635       4.05186441      24.58417386        2       0.00000000      -0.00233624      -0.01428565       0.00006425
Pt       4.21082088       4.05186391      24.58417389        2       0.00000000       0.00918474      -0.00747190       0.03206216
Pt       7.01803505       4.05186405      24.58417404        2       0.00000000      -0.01116562      -0.00388901       0.03201287
Pt       2.80721273       6.48298348      24.58417381        2       0.00000000       0.01346908       0.00522883      -0.00014804
Pt       5.61442805       6.48298330      24.58417394        2       0.00000000      -0.00561400      -0.01151999       0.03823957
Pt       8.42164222       6.48298341      24.58417373        2       0.00000000      -0.01114702       0.00912190      -0.00022125
Pt       0.00034810       0.00106768      26.92458368        1       0.00000000      -0.01549589      -0.00759183      -0.00371787
Pt       2.80608635      -0.00027473      26.92458776        1       0.00000000       0.01461349      -0.00903855      -0.00369094
Pt       5.61447975      -0.00946749      26.91019768        1       0.00000000       0.00091053       0.00850023       0.00723208
Pt       1.40438429       2.43024657      26.92454917        1       0.00000000       0.00078094       0.01742821      -0.00355701
Pt       4.16930540       2.40637187      26.91413871        1       0.00000000      -0.00477431      -0.00101077      -0.01109596
Pt       7.06024041       2.40759892      26.91414376        1       0.00000000       0.00340176      -0.00368700      -0.01115690
Pt       2.79899188       4.86693975      26.91019837        1       0.00000000       0.00670787      -0.00508861       0.00728200
Pt       5.61374591       4.91057972      26.91432051        1       0.00000000       0.00145499       0.00389197      -0.01030623
Pt       8.42980651       4.86707331      26.91021134        1       0.00000000      -0.00759992      -0.00369344       0.00725411
O        5.61442300       3.24187823      29.27797432        0       0.50000000      -0.00000810       0.00238620       0.00554545
H        5.61441618       3.24112649      28.28333373        0       0.50000000      -0.00000099      -0.00187402      -0.00333638
