38
Lattice="8.421641763931781 0.0 0.0 4.2108208819658905 7.293355709136913 0.0 0.0 0.0 46.87624170604845" Properties=species:S:1:pos:R:3:tags:I:1:initial_magmoms:R:1:forces:R:3 charge=0 spin=0 energy=-194.69037005001866 free_energy=-194.69037005001866 stress="0.009590868838131428 3.4926526115697243e-09 2.3932278736538137e-07 3.4926526115697243e-09 0.009591002948582172 -1.8002950241680082e-09 2.3932278736538137e-07 -1.8002950241680082e-09 -0.00015935959527269006" pbc="T T T"
Pt      -0.00000001       0.00000015      19.95723445        4       0.00000000       0.00566612       0.00377134      -0.00139894
Pt       2.80721394      -0.00000009      19.95723448        4       0.00000000      -0.00607936       0.00305209      -0.00136601
Pt       5.61442781      -0.00000017      19.95723450        4       0.00000000       0.00081234      -0.00214608       0.01306436
Pt       1.40360720       2.43111836      19.95723436        4       0.00000000       0.00040715      -0.00681720      -0.00135559
Pt       4.21082078       2.43111836      19.95723446        4       0.00000000      -0.00402810      -0.00417877       0.01199397
Pt       7.01803484       2.43111844      19.95723431        4       0.00000000       0.00563246      -0.00139784       0.01200368
Pt       2.80721414       4.86223727      19.95723413        4       0.00000000      -0.00230174       0.00037269       0.01310234
Pt       5.61442797       4.86223736      19.95723433        4       0.00000000      -0.00160313       0.00557620       0.01203080
Pt       8.42164142       4.86223724      19.95723439        4       0.00000000       0.00149222       0.00176673       0.01311733
Pt       1.40360727       0.81037261      22.29206790        3       0.00000000      -0.00000273       0.00000422       0.07111768
Pt       4.21082126       0.81037249      22.29206793        3       0.00000000       0.00865069      -0.00414021      -0.04159669
Pt       7.01803475       0.81037258      22.29206787        3       0.00000000      -0.00919258      -0.00510968      -0.04369335
Pt       2.80721449       3.24149123      22.29206778        3       0.00000000       0.00016566       0.01052584      -0.04360458
Pt       5.61442761       3.24149123      22.29206789        3       0.00000000       0.00000539      -0.00000941      -0.02845506
Pt       8.42164155       3.24149130      22.29206812        3       0.00000000      -0.00076893       0.00949062      -0.04156742
Pt       4.21082090       5.67260997      22.29206743        3       0.00000000      -0.00787682      -0.00533865      -0.04146210
Pt       7.01803489       5.67261038      22.29206778        3       0.00000000       0.00901347      -0.00541589      -0.04359302
Pt       9.82524818       5.67261058      22.29206804        3       0.00000000       0.00000706       0.00000314      -0.04669913
Pt      -0.00000057       1.62074568      24.58417368        2       0.00000000      -0.00489863       0.00900980       0.02098126
Pt       2.80721445       1.62074549      24.58417387        2       0.00000000       0.01015674      -0.00010007       0.02116228
Pt       5.61442780       1.62074538      24.58417368        2       0.00000000       0.00290463       0.00692863       0.02090621
Pt       1.40360635       4.05186441      24.58417386        2       0.00000000      -0.00144652      -0.00850157      -0.00935824
Pt       4.21082088       4.05186391      24.58417389        2       0.00000000       0.00432888      -0.00602526       0.02105851
Pt       7.01803505       4.05186405      24.58417404        2       0.00000000      -0.00728696      -0.00083290       0.02094571
Pt       2.80721273       6.48298348      24.58417381        2       0.00000000       0.00792240       0.00295111      -0.00969741
Pt       5.61442805       6.48298330      24.58417394        2       0.00000000      -0.00519145      -0.00875298       0.02077596
Pt       8.42164222       6.48298341      24.58417373        2       0.00000000      -0.00644232       0.00532027      -0.00976465
Pt      -0.00136496      -0.00023344      26.92094532        1       0.00000000      -0.00471526       0.00296585       0.01373156
Pt       2.80807708      -0.00111633      26.92093685        1       0.00000000      -0.00003326      -0.00512028       0.01376703
Pt       5.61365233      -0.01023557      26.91064083        1       0.00000000       0.00578343       0.01323586       0.00771760
Pt       1.40410324       2.43238434      26.92105088        1       0.00000000       0.00481519       0.00271249       0.01320857
Pt       4.16912660       2.40555618      26.91039706        1       0.00000000      -0.00342738       0.00529054       0.00915349
Pt       7.06106185       2.40784012      26.91036819        1       0.00000000      -0.00302599      -0.00593630       0.00898047
Pt       2.79869665       4.86803322      26.91069054        1       0.00000000       0.00860660      -0.01176332       0.00757697
Pt       5.61311493       4.91111799      26.91034806        1       0.00000000       0.00639024       0.00022713       0.00928195
Pt       8.43091240       4.86668909      26.91069359        1       0.00000000      -0.01434749      -0.00158688       0.00758414
O        5.61434588       3.24148836      29.27387264        0       0.50000000      -0.00046828      -0.00006461      -0.02020961
H        5.61449267       3.24150635      28.27856856        0       0.50000000       0.00037637       0.00003349       0.02056008
