38
Lattice="8.421641763931781 0.0 0.0 4.2108208819658905 7.293355709136913 0.0 0.0 0.0 46.87624170604845" Properties=species:S:1:pos:R:3:tags:I:1:initial_magmoms:R:1:forces:R:3 charge=0 spin=0 energy=-194.69032236630284 free_energy=-194.69032236630284 stress="0.009629481472074986 5.176426043362881e-07 1.6197375316551188e-06 5.176426043362881e-07 0.009631010703742504 -2.2394033294403926e-06 1.6197375316551188e-06 -2.2394033294403926e-06 -0.00010900448251049966" pbc="T T T"
Pt      -0.00000001       0.00000015      19.95723445        4       0.00000000       0.00566478       0.00371180      -0.00132453
Pt       2.80721394      -0.00000009      19.95723448        4       0.00000000      -0.00605210       0.00310353      -0.00122591
Pt       5.61442781      -0.00000017      19.95723450        4       0.00000000       0.00075845      -0.00243790       0.01308169
Pt       1.40360720       2.43111836      19.95723436        4       0.00000000       0.00035105      -0.00676892      -0.00134086
Pt       4.21082078       2.43111836      19.95723446        4       0.00000000      -0.00394919      -0.00431326       0.01195520
Pt       7.01803484       2.43111844      19.95723431        4       0.00000000       0.00571327      -0.00126647       0.01196123
Pt       2.80721414       4.86223727      19.95723413        4       0.00000000      -0.00253449       0.00056440       0.01310098
Pt       5.61442797       4.86223736      19.95723433        4       0.00000000      -0.00175953       0.00557700       0.01199286
Pt       8.42164142       4.86223724      19.95723439        4       0.00000000       0.00177719       0.00185188       0.01312255
Pt       1.40360727       0.81037261      22.29206790        3       0.00000000      -0.00001263       0.00001379       0.07225968
Pt       4.21082126       0.81037249      22.29206793        3       0.00000000       0.00886575      -0.00384122      -0.04140834
Pt       7.01803475       0.81037258      22.29206787        3       0.00000000      -0.00946231      -0.00475576      -0.04466459
Pt       2.80721449       3.24149123      22.29206778        3       0.00000000       0.00057699       0.01056260      -0.04457850
Pt       5.61442761       3.24149123      22.29206789        3       0.00000000       0.00000687      -0.00000468      -0.03029692
Pt       8.42164155       3.24149130      22.29206812        3       0.00000000      -0.00109867       0.00952044      -0.04145981
Pt       4.21082090       5.67260997      22.29206743        3       0.00000000      -0.00773741      -0.00566108      -0.04129276
Pt       7.01803489       5.67261038      22.29206778        3       0.00000000       0.00882846      -0.00583478      -0.04452030
Pt       9.82524818       5.67261058      22.29206804        3       0.00000000       0.00001397      -0.00000780      -0.04480675
Pt      -0.00000057       1.62074568      24.58417368        2       0.00000000       0.00178665       0.00616426       0.03125634
Pt       2.80721445       1.62074549      24.58417387        2       0.00000000       0.00503932      -0.00435731       0.03234618
Pt       5.61442780       1.62074538      24.58417368        2       0.00000000       0.00195533       0.00181545       0.02437845
Pt       1.40360635       4.05186441      24.58417386        2       0.00000000      -0.00330140      -0.00602547       0.00169696
Pt       4.21082088       4.05186391      24.58417389        2       0.00000000       0.00056000      -0.00274584       0.02478334
Pt       7.01803505       4.05186405      24.58417404        2       0.00000000      -0.00281858       0.00141457       0.02458711
Pt       2.80721273       6.48298348      24.58417381        2       0.00000000       0.00677880       0.00019896       0.00156063
Pt       5.61442805       6.48298330      24.58417394        2       0.00000000      -0.00612046      -0.00274180       0.03308417
Pt       8.42164222       6.48298341      24.58417373        2       0.00000000      -0.00346104       0.00579108       0.00145266
Pt      -0.00421741      -0.00108389      26.92343176        1       0.00000000       0.01875695       0.00841335      -0.00085710
Pt       2.81025738      -0.00312906      26.92341992        1       0.00000000      -0.01666598       0.01204233      -0.00089817
Pt       5.61525255      -0.01062706      26.91405924        1       0.00000000      -0.00323951       0.01508388      -0.00632797
Pt       1.40479744       2.43530930      26.92344145        1       0.00000000      -0.00209002      -0.02049813      -0.00080343
Pt       4.16897758       2.40594815      26.90968590        1       0.00000000      -0.00318410      -0.00007024       0.01245011
Pt       7.06085230       2.40746626      26.90946427        1       0.00000000       0.00214915      -0.00276758       0.01124206
Pt       2.79758254       4.86683553      26.91406955        1       0.00000000       0.01462786      -0.00476124      -0.00628525
Pt       5.61350055       4.91100913      26.90983083        1       0.00000000       0.00132381       0.00256819       0.01324490
Pt       8.43043007       4.86827679      26.91406598        1       0.00000000      -0.01145799      -0.01029812      -0.00625077
O        5.61385331       3.24225054      29.27453424        0       0.50000000      -0.00319966       0.00428519       0.01476578
H        5.61486973       3.24090581      28.28028110        0       0.50000000       0.00261036      -0.00352533      -0.01598096
