38
Lattice="8.421641763931781 0.0 0.0 4.2108208819658905 7.293355709136913 0.0 0.0 0.0 46.87624170604845" Properties=species:S:1:pos:R:3:tags:I:1:initial_magmoms:R:1:forces:R:3 charge=0 spin=0 energy=-194.6903662353214 free_energy=-194.6903662353214 stress="0.009590904228389263 1.1663655596905187e-09 2.2200761407020764e-07 1.1663655596905187e-09 0.009591040201485157 5.518315138175467e-09 2.2200761407020764e-07 5.518315138175467e-09 -0.00015926742344163358" pbc="T T T"
Pt      -0.00000001       0.00000015      19.95723445        4       0.00000000       0.00566620       0.00377147      -0.00139877
Pt       2.80721394      -0.00000009      19.95723448        4       0.00000000      -0.00607940       0.00305214      -0.00136613
Pt       5.61442781      -0.00000017      19.95723450        4       0.00000000       0.00081222      -0.00214594       0.01306428
Pt       1.40360720       2.43111836      19.95723436        4       0.00000000       0.00040716      -0.00681728      -0.00135566
Pt       4.21082078       2.43111836      19.95723446        4       0.00000000      -0.00402822      -0.00417893       0.01199371
Pt       7.01803484       2.43111844      19.95723431        4       0.00000000       0.00563248      -0.00139807       0.01200359
Pt       2.80721414       4.86223727      19.95723413        4       0.00000000      -0.00230169       0.00037260       0.01310219
Pt       5.61442797       4.86223736      19.95723433        4       0.00000000      -0.00160304       0.00557630       0.01203048
Pt       8.42164142       4.86223724      19.95723439        4       0.00000000       0.00149227       0.00176689       0.01311682
Pt       1.40360727       0.81037261      22.29206790        3       0.00000000      -0.00000303       0.00000409       0.07111592
Pt       4.21082126       0.81037249      22.29206793        3       0.00000000       0.00865117      -0.00413970      -0.04159365
Pt       7.01803475       0.81037258      22.29206787        3       0.00000000      -0.00919268      -0.00510893      -0.04369192
Pt       2.80721449       3.24149123      22.29206778        3       0.00000000       0.00016570       0.01052575      -0.04360283
Pt       5.61442761       3.24149123      22.29206789        3       0.00000000       0.00000620      -0.00000997      -0.02845702
Pt       8.42164155       3.24149130      22.29206812        3       0.00000000      -0.00076968       0.00949018      -0.04156724
Pt       4.21082090       5.67260997      22.29206743        3       0.00000000      -0.00787654      -0.00533871      -0.04146156
Pt       7.01803489       5.67261038      22.29206778        3       0.00000000       0.00901265      -0.00541656      -0.04359163
Pt       9.82524818       5.67261058      22.29206804        3       0.00000000       0.00000719       0.00000310      -0.04670006
Pt      -0.00000057       1.62074568      24.58417368        2       0.00000000      -0.00489769       0.00901196       0.02098561
Pt       2.80721445       1.62074549      24.58417387        2       0.00000000       0.01015167      -0.00010329       0.02116009
Pt       5.61442780       1.62074538      24.58417368        2       0.00000000       0.00290423       0.00692486       0.02090069
Pt       1.40360635       4.05186441      24.58417386        2       0.00000000      -0.00144294      -0.00850437      -0.00936261
Pt       4.21082088       4.05186391      24.58417389        2       0.00000000       0.00432560      -0.00602579       0.02105046
Pt       7.01803505       4.05186405      24.58417404        2       0.00000000      -0.00728529      -0.00083361       0.02093511
Pt       2.80721273       6.48298348      24.58417381        2       0.00000000       0.00792547       0.00295146      -0.00970092
Pt       5.61442805       6.48298330      24.58417394        2       0.00000000      -0.00519075      -0.00874923       0.02078032
Pt       8.42164222       6.48298341      24.58417373        2       0.00000000      -0.00644505       0.00532307      -0.00976165
Pt      -0.00136491      -0.00023371      26.92094616        1       0.00000000      -0.00471116       0.00296864       0.01372645
Pt       2.80807660      -0.00111626      26.92093804        1       0.00000000      -0.00003052      -0.00512509       0.01375777
Pt       5.61365261      -0.01023695      26.91064105        1       0.00000000       0.00577358       0.01323898       0.00772328
Pt       1.40410349       2.43238434      26.92105111        1       0.00000000       0.00480986       0.00271283       0.01320673
Pt       4.16912668       2.40555622      26.91039467        1       0.00000000      -0.00339867       0.00529266       0.00918316
Pt       7.06106157       2.40784041      26.91036684        1       0.00000000      -0.00305459      -0.00592254       0.00902748
Pt       2.79869563       4.86803401      26.91068968        1       0.00000000       0.00860615      -0.01176873       0.00758145
Pt       5.61311485       4.91111770      26.91034652        1       0.00000000       0.00640002       0.00020894       0.00931605
Pt       8.43091322       4.86668982      26.91069275        1       0.00000000      -0.01434547      -0.00157817       0.00760337
O        5.61434905       3.24148962      29.27388707        0       0.50000000      -0.00041895      -0.00009175      -0.02037594
H        5.61449029       3.24150523      28.27858146        0       0.50000000       0.00032553       0.00006077       0.02062263
