38
Lattice="8.421641763931781 0.0 0.0 4.2108208819658905 7.293355709136913 0.0 0.0 0.0 46.87624170604845" Properties=species:S:1:pos:R:3:tags:I:1:initial_magmoms:R:1:forces:R:3 charge=0 spin=0 energy=-194.69038530880772 free_energy=-194.69038530880772 stress="0.0096447067335248 -1.0950303419576812e-07 -1.5275306353146334e-08 -1.0950303419576812e-07 0.009645571000874043 -1.3072058209218085e-06 -1.5275306353146334e-08 -1.3072058209218085e-06 -7.967223791638389e-05" pbc="T T T"
Pt      -0.00000001       0.00000015      19.95723445        4       0.00000000       0.00570667       0.00376995      -0.00135519
Pt       2.80721394      -0.00000009      19.95723448        4       0.00000000      -0.00609417       0.00308521      -0.00133496
Pt       5.61442781      -0.00000017      19.95723450        4       0.00000000       0.00071221      -0.00190144       0.01313200
Pt       1.40360720       2.43111836      19.95723436        4       0.00000000       0.00038801      -0.00683188      -0.00137247
Pt       4.21082078       2.43111836      19.95723446        4       0.00000000      -0.00398112      -0.00421048       0.01210289
Pt       7.01803484       2.43111844      19.95723431        4       0.00000000       0.00563415      -0.00134729       0.01211193
Pt       2.80721414       4.86223727      19.95723413        4       0.00000000      -0.00204822       0.00033421       0.01316173
Pt       5.61442797       4.86223736      19.95723433        4       0.00000000      -0.00165142       0.00555127       0.01214051
Pt       8.42164142       4.86223724      19.95723439        4       0.00000000       0.00132996       0.00156111       0.01317289
Pt       1.40360727       0.81037261      22.29206790        3       0.00000000      -0.00000200       0.00001121       0.06970135
Pt       4.21082126       0.81037249      22.29206793        3       0.00000000       0.00859979      -0.00463997      -0.04106521
Pt       7.01803475       0.81037258      22.29206787        3       0.00000000      -0.00907509      -0.00541904      -0.04380635
Pt       2.80721449       3.24149123      22.29206778        3       0.00000000      -0.00018522       0.01058016      -0.04381104
Pt       5.61442761       3.24149123      22.29206789        3       0.00000000      -0.00000126      -0.00000305      -0.02668034
Pt       8.42164155       3.24149130      22.29206812        3       0.00000000      -0.00029487       0.00969993      -0.04112489
Pt       4.21082090       5.67260997      22.29206743        3       0.00000000      -0.00828965      -0.00506466      -0.04095699
Pt       7.01803489       5.67261038      22.29206778        3       0.00000000       0.00922232      -0.00516332      -0.04371326
Pt       9.82524818       5.67261058      22.29206804        3       0.00000000       0.00001359      -0.00001861      -0.04967549
Pt      -0.00000057       1.62074568      24.58417368        2       0.00000000      -0.00681800       0.01044410       0.03759903
Pt       2.80721445       1.62074549      24.58417387        2       0.00000000       0.01241345       0.00047731       0.03754805
Pt       5.61442780       1.62074538      24.58417368        2       0.00000000       0.00203605       0.01167718       0.03176568
Pt       1.40360635       4.05186441      24.58417386        2       0.00000000      -0.00233596      -0.01428435       0.00006580
Pt       4.21082088       4.05186391      24.58417389        2       0.00000000       0.00918618      -0.00747119       0.03206302
Pt       7.01803505       4.05186405      24.58417404        2       0.00000000      -0.01116593      -0.00388907       0.03201108
Pt       2.80721273       6.48298348      24.58417381        2       0.00000000       0.01346916       0.00522859      -0.00014841
Pt       5.61442805       6.48298330      24.58417394        2       0.00000000      -0.00561434      -0.01151902       0.03823780
Pt       8.42164222       6.48298341      24.58417373        2       0.00000000      -0.01114452       0.00912234      -0.00022052
Pt       0.00034764       0.00106746      26.92458411        1       0.00000000      -0.01549556      -0.00758926      -0.00371931
Pt       2.80608665      -0.00027501      26.92458732        1       0.00000000       0.01461333      -0.00903596      -0.00368975
Pt       5.61447976      -0.00946634      26.91019772        1       0.00000000       0.00090860       0.00849095       0.00723232
Pt       1.40438500       2.43024702      26.92454866        1       0.00000000       0.00077502       0.01742746      -0.00355690
Pt       4.16930532       2.40637175      26.91413937        1       0.00000000      -0.00478138      -0.00101399      -0.01111010
Pt       7.06023978       2.40759942      26.91414437        1       0.00000000       0.00340557      -0.00368601      -0.01115313
Pt       2.79899267       4.86693944      26.91019888        1       0.00000000       0.00670385      -0.00508608       0.00728013
Pt       5.61374625       4.91057955      26.91432006        1       0.00000000       0.00145776       0.00389061      -0.01030324
Pt       8.42980551       4.86707277      26.91021189        1       0.00000000      -0.00759341      -0.00369005       0.00725293
O        5.61442522       3.24187800      29.27797536        0       0.50000000       0.00002365       0.00240588       0.00562221
H        5.61441405       3.24112675      28.28333417        0       0.50000000      -0.00002703      -0.00189257      -0.00340381
