38
Lattice="8.421641763931781 0.0 0.0 4.2108208819658905 7.293355709136913 0.0 0.0 0.0 46.87624170604845" Properties=species:S:1:pos:R:3:tags:I:1:initial_magmoms:R:1:forces:R:3 charge=0 spin=0 energy=-194.6903662353214 free_energy=-194.6903662353214 stress="0.009590798057615757 -2.2185801806795524e-10 2.3135694959819375e-07 -2.2185801806795524e-10 0.009590942412614822 -1.2456441211838865e-08 2.3135694959819375e-07 -1.2456441211838865e-08 -0.00015933567192405462" pbc="T T T"
Pt      -0.00000001       0.00000015      19.95723445        4       0.00000000       0.00566660       0.00377146      -0.00139923
Pt       2.80721394      -0.00000009      19.95723448        4       0.00000000      -0.00607963       0.00305240      -0.00136681
Pt       5.61442781      -0.00000017      19.95723450        4       0.00000000       0.00081247      -0.00214611       0.01306417
Pt       1.40360720       2.43111836      19.95723436        4       0.00000000       0.00040700      -0.00681756      -0.00135623
Pt       4.21082078       2.43111836      19.95723446        4       0.00000000      -0.00402852      -0.00417892       0.01199399
Pt       7.01803484       2.43111844      19.95723431        4       0.00000000       0.00563282      -0.00139832       0.01200389
Pt       2.80721414       4.86223727      19.95723413        4       0.00000000      -0.00230204       0.00037247       0.01310217
Pt       5.61442797       4.86223736      19.95723433        4       0.00000000      -0.00160302       0.00557668       0.01203069
Pt       8.42164142       4.86223724      19.95723439        4       0.00000000       0.00149221       0.00176730       0.01311701
Pt       1.40360727       0.81037261      22.29206790        3       0.00000000      -0.00000272       0.00000364       0.07112540
Pt       4.21082126       0.81037249      22.29206793        3       0.00000000       0.00865089      -0.00414068      -0.04159814
Pt       7.01803475       0.81037258      22.29206787        3       0.00000000      -0.00919221      -0.00511065      -0.04369432
Pt       2.80721449       3.24149123      22.29206778        3       0.00000000       0.00016544       0.01052628      -0.04360488
Pt       5.61442761       3.24149123      22.29206789        3       0.00000000       0.00000563      -0.00000945      -0.02845443
Pt       8.42164155       3.24149130      22.29206812        3       0.00000000      -0.00076871       0.00949039      -0.04156794
Pt       4.21082090       5.67260997      22.29206743        3       0.00000000      -0.00787668      -0.00533869      -0.04146370
Pt       7.01803489       5.67261038      22.29206778        3       0.00000000       0.00901385      -0.00541578      -0.04359413
Pt       9.82524818       5.67261058      22.29206804        3       0.00000000       0.00000738       0.00000305      -0.04670081
Pt      -0.00000057       1.62074568      24.58417368        2       0.00000000      -0.00491198       0.00901852       0.02099841
Pt       2.80721445       1.62074549      24.58417387        2       0.00000000       0.01016789      -0.00009611       0.02117684
Pt       5.61442780       1.62074538      24.58417368        2       0.00000000       0.00290343       0.00692985       0.02090829
Pt       1.40360635       4.05186441      24.58417386        2       0.00000000      -0.00144653      -0.00850449      -0.00937011
Pt       4.21082088       4.05186391      24.58417389        2       0.00000000       0.00433177      -0.00602577       0.02105866
Pt       7.01803505       4.05186405      24.58417404        2       0.00000000      -0.00728925      -0.00083358       0.02094583
Pt       2.80721273       6.48298348      24.58417381        2       0.00000000       0.00792057       0.00295394      -0.00970944
Pt       5.61442805       6.48298330      24.58417394        2       0.00000000      -0.00518867      -0.00876797       0.02079037
Pt       8.42164222       6.48298341      24.58417373        2       0.00000000      -0.00644354       0.00532331      -0.00977167
Pt      -0.00136500      -0.00023319      26.92094391        1       0.00000000      -0.00471440       0.00296684       0.01374216
Pt       2.80807666      -0.00111608      26.92093699        1       0.00000000      -0.00002864      -0.00512389       0.01376951
Pt       5.61365215      -0.01023761      26.91064036        1       0.00000000       0.00577944       0.01324329       0.00771815
Pt       1.40410304       2.43238434      26.92105060        1       0.00000000       0.00481419       0.00271188       0.01321184
Pt       4.16912416       2.40555473      26.91039852        1       0.00000000      -0.00346585       0.00526888       0.00911196
Pt       7.06106375       2.40783891      26.91037075        1       0.00000000      -0.00299097      -0.00595147       0.00895555
Pt       2.79869529       4.86803468      26.91068892        1       0.00000000       0.00861735      -0.01177025       0.00758620
Pt       5.61311477       4.91111999      26.91035033        1       0.00000000       0.00639274       0.00026134       0.00926280
Pt       8.43091469       4.86668974      26.91069217        1       0.00000000      -0.01436192      -0.00158576       0.00759436
O        5.61435054       3.24149024      29.27382471        0       0.50000000      -0.00045145      -0.00003615      -0.02029214
H        5.61448892       3.24150495      28.27851625        0       0.50000000       0.00036508       0.00000964       0.02067573
