38
Lattice="8.421641763931781 0.0 0.0 4.2108208819658905 7.293355709136913 0.0 0.0 0.0 46.87624170604845" Properties=species:S:1:pos:R:3:tags:I:1:initial_magmoms:R:1:forces:R:3 charge=0 spin=0 energy=-194.69044443661534 free_energy=-194.69044443661534 stress="0.009615851566195488 -2.0595971150783043e-08 1.7420629205844307e-07 -2.0595971150783043e-08 0.009616687893867493 -1.2066019507983583e-06 1.7420629205844307e-07 -1.2066019507983583e-06 -0.0001316676934948191" pbc="T T T"
Pt      -0.00000001       0.00000015      19.95723445        4       0.00000000       0.00570009       0.00374703      -0.00136098
Pt       2.80721394      -0.00000009      19.95723448        4       0.00000000      -0.00607364       0.00309734      -0.00133068
Pt       5.61442781      -0.00000017      19.95723450        4       0.00000000       0.00073356      -0.00220104       0.01308459
Pt       1.40360720       2.43111836      19.95723436        4       0.00000000       0.00036788      -0.00681489      -0.00137088
Pt       4.21082078       2.43111836      19.95723446        4       0.00000000      -0.00395733      -0.00426695       0.01198697
Pt       7.01803484       2.43111844      19.95723431        4       0.00000000       0.00567385      -0.00129376       0.01199543
Pt       2.80721414       4.86223727      19.95723413        4       0.00000000      -0.00231660       0.00046289       0.01311604
Pt       5.61442797       4.86223736      19.95723433        4       0.00000000      -0.00171423       0.00555926       0.01202558
Pt       8.42164142       4.86223724      19.95723439        4       0.00000000       0.00158022       0.00172503       0.01312840
Pt       1.40360727       0.81037261      22.29206790        3       0.00000000      -0.00000419       0.00001197       0.07143953
Pt       4.21082126       0.81037249      22.29206793        3       0.00000000       0.00870833      -0.00435221      -0.04126642
Pt       7.01803475       0.81037258      22.29206787        3       0.00000000      -0.00923014      -0.00515282      -0.04432436
Pt       2.80721449       3.24149123      22.29206778        3       0.00000000       0.00012565       0.01057510      -0.04427531
Pt       5.61442761       3.24149123      22.29206789        3       0.00000000       0.00000125      -0.00000256      -0.02813368
Pt       8.42164155       3.24149130      22.29206812        3       0.00000000      -0.00059913       0.00964656      -0.04128309
Pt       4.21082090       5.67260997      22.29206743        3       0.00000000      -0.00809210      -0.00529025      -0.04114305
Pt       7.01803489       5.67261038      22.29206778        3       0.00000000       0.00906832      -0.00542158      -0.04421487
Pt       9.82524818       5.67261058      22.29206804        3       0.00000000       0.00001346      -0.00001004      -0.04711813
Pt      -0.00000057       1.62074568      24.58417368        2       0.00000000      -0.00232038       0.00818139       0.03312564
Pt       2.80721445       1.62074549      24.58417387        2       0.00000000       0.00824221      -0.00213607       0.03324514
Pt       5.61442780       1.62074538      24.58417368        2       0.00000000       0.00197917       0.00752003       0.02257470
Pt       1.40360635       4.05186441      24.58417386        2       0.00000000      -0.00296609      -0.01104544      -0.00550027
Pt       4.21082088       4.05186391      24.58417389        2       0.00000000       0.00554621      -0.00538784       0.02290447
Pt       7.01803505       4.05186405      24.58417404        2       0.00000000      -0.00753088      -0.00181404       0.02282031
Pt       2.80721273       6.48298348      24.58417381        2       0.00000000       0.01097023       0.00299731      -0.00566090
Pt       5.61442805       6.48298330      24.58417394        2       0.00000000      -0.00583711      -0.00657883       0.03390981
Pt       8.42164222       6.48298341      24.58417373        2       0.00000000      -0.00802413       0.00799601      -0.00571824
Pt      -0.00244659      -0.00039072      26.92347505        1       0.00000000       0.00703716       0.00368358      -0.00025797
Pt       2.80876122      -0.00192326      26.92348290        1       0.00000000      -0.00672660       0.00420842      -0.00028265
Pt       5.61502978      -0.00991159      26.91070252        1       0.00000000      -0.00191234       0.01095441       0.00790706
Pt       1.40449857       2.43342417      26.92348712        1       0.00000000      -0.00031914      -0.00795381      -0.00022337
Pt       4.16935240       2.40632258      26.91121117        1       0.00000000      -0.00902688      -0.00387266       0.00276954
Pt       7.06027055       2.40762253      26.91118699        1       0.00000000       0.00797896      -0.00580214       0.00263241
Pt       2.79831244       4.86665881      26.91072363        1       0.00000000       0.01047291      -0.00378498       0.00786885
Pt       5.61368584       4.91050237      26.91135391        1       0.00000000       0.00104764       0.00956669       0.00338801
Pt       8.42992128       4.86773411      26.91073111        1       0.00000000      -0.00853608      -0.00715012       0.00786107
O        5.61436878       3.24188779      29.27316377        0       0.50000000      -0.00036465       0.00230637       0.01765780
H        5.61447401       3.24118000      28.27877302        0       0.50000000       0.00030455      -0.00190752      -0.01197664
