38
Lattice="8.421641763931781 0.0 0.0 4.2108208819658905 7.293355709136913 0.0 0.0 0.0 46.87624170604845" Properties=species:S:1:pos:R:3:tags:I:1:initial_magmoms:R:1:forces:R:3 charge=0 spin=0 energy=-194.69032427365147 free_energy=-194.69032427365147 stress="0.009629491716623306 5.208636935094546e-07 1.6420798374383594e-06 5.208636935094546e-07 0.009631061926484108 -2.295727881573839e-06 1.6420798374383594e-06 -2.295727881573839e-06 -0.00010954464232781902" pbc="T T T"
Pt      -0.00000001       0.00000015      19.95723445        4       0.00000000       0.00566612       0.00371296      -0.00132311
Pt       2.80721394      -0.00000009      19.95723448        4       0.00000000      -0.00605397       0.00310431      -0.00122419
Pt       5.61442781      -0.00000017      19.95723450        4       0.00000000       0.00075826      -0.00243845       0.01308183
Pt       1.40360720       2.43111836      19.95723436        4       0.00000000       0.00035143      -0.00676966      -0.00134166
Pt       4.21082078       2.43111836      19.95723446        4       0.00000000      -0.00394843      -0.00431260       0.01195597
Pt       7.01803484       2.43111844      19.95723431        4       0.00000000       0.00571251      -0.00126607       0.01196165
Pt       2.80721414       4.86223727      19.95723413        4       0.00000000      -0.00253519       0.00056463       0.01310066
Pt       5.61442797       4.86223736      19.95723433        4       0.00000000      -0.00175944       0.00557600       0.01199363
Pt       8.42164142       4.86223724      19.95723439        4       0.00000000       0.00177793       0.00185181       0.01312216
Pt       1.40360727       0.81037261      22.29206790        3       0.00000000      -0.00001248       0.00001405       0.07225712
Pt       4.21082126       0.81037249      22.29206793        3       0.00000000       0.00886824      -0.00384066      -0.04140965
Pt       7.01803475       0.81037258      22.29206787        3       0.00000000      -0.00946443      -0.00475439      -0.04466503
Pt       2.80721449       3.24149123      22.29206778        3       0.00000000       0.00057862       0.01056317      -0.04457976
Pt       5.61442761       3.24149123      22.29206789        3       0.00000000       0.00000610      -0.00000514      -0.03029222
Pt       8.42164155       3.24149130      22.29206812        3       0.00000000      -0.00109859       0.00952147      -0.04146164
Pt       4.21082090       5.67260997      22.29206743        3       0.00000000      -0.00773795      -0.00566274      -0.04129281
Pt       7.01803489       5.67261038      22.29206778        3       0.00000000       0.00882773      -0.00583617      -0.04452069
Pt       9.82524818       5.67261058      22.29206804        3       0.00000000       0.00001402      -0.00000751      -0.04480534
Pt      -0.00000057       1.62074568      24.58417368        2       0.00000000       0.00182210       0.00614322       0.03117156
Pt       2.80721445       1.62074549      24.58417387        2       0.00000000       0.00500839      -0.00437490       0.03226566
Pt       5.61442780       1.62074538      24.58417368        2       0.00000000       0.00195363       0.00184330       0.02441984
Pt       1.40360635       4.05186441      24.58417386        2       0.00000000      -0.00330473      -0.00602531       0.00167610
Pt       4.21082088       4.05186391      24.58417389        2       0.00000000       0.00058870      -0.00275715       0.02483028
Pt       7.01803505       4.05186405      24.58417404        2       0.00000000      -0.00285071       0.00140977       0.02463186
Pt       2.80721273       6.48298348      24.58417381        2       0.00000000       0.00677721       0.00019575       0.00154057
Pt       5.61442805       6.48298330      24.58417394        2       0.00000000      -0.00611511      -0.00272626       0.03303900
Pt       8.42164222       6.48298341      24.58417373        2       0.00000000      -0.00346065       0.00579172       0.00142895
Pt      -0.00421909      -0.00108454      26.92342887        1       0.00000000       0.01875873       0.00840544      -0.00082476
Pt       2.81025913      -0.00312983      26.92341784        1       0.00000000      -0.01667074       0.01203141      -0.00086775
Pt       5.61525200      -0.01062628      26.91405486        1       0.00000000      -0.00323410       0.01513106      -0.00630335
Pt       1.40479751       2.43531036      26.92343992        1       0.00000000      -0.00209334      -0.02049514      -0.00076838
Pt       4.16895623       2.40593654      26.90968280        1       0.00000000      -0.00289607       0.00010792       0.01249589
Pt       7.06087407       2.40745412      26.90946000        1       0.00000000       0.00187224      -0.00261442       0.01126729
Pt       2.79758367       4.86683569      26.91406572        1       0.00000000       0.01466686      -0.00478185      -0.00626317
Pt       5.61350075       4.91103040      26.90983417        1       0.00000000       0.00131836       0.00223850       0.01331589
Pt       8.43042975       4.86827580      26.91406206        1       0.00000000      -0.01149744      -0.01032134      -0.00622727
O        5.61385063       3.24227224      29.27463089        0       0.50000000      -0.00326109       0.00438868       0.01624313
H        5.61487148       3.24088875      28.28042331        0       0.50000000       0.00266735      -0.00360547      -0.01762807
