38
Lattice="8.421641763931781 0.0 0.0 4.2108208819658905 7.293355709136913 0.0 0.0 0.0 46.87624170604845" Properties=species:S:1:pos:R:3:tags:I:1:initial_magmoms:R:1:forces:R:3 charge=0 spin=0 energy=-194.69045015866124 free_energy=-194.69045015866124 stress="0.00961581151932478 -3.474609400200279e-08 1.2320040809754573e-07 -3.474609400200279e-08 0.00961664505302906 -1.2063875374224153e-06 1.2320040809754573e-07 -1.2063875374224153e-06 -0.00013172382023185492" pbc="T T T"
Pt      -0.00000001       0.00000015      19.95723445        4       0.00000000       0.00570051       0.00374726      -0.00136060
Pt       2.80721394      -0.00000009      19.95723448        4       0.00000000      -0.00607378       0.00309766      -0.00133140
Pt       5.61442781      -0.00000017      19.95723450        4       0.00000000       0.00073364      -0.00220101       0.01308461
Pt       1.40360720       2.43111836      19.95723436        4       0.00000000       0.00036797      -0.00681521      -0.00137120
Pt       4.21082078       2.43111836      19.95723446        4       0.00000000      -0.00395748      -0.00426723       0.01198688
Pt       7.01803484       2.43111844      19.95723431        4       0.00000000       0.00567392      -0.00129363       0.01199570
Pt       2.80721414       4.86223727      19.95723413        4       0.00000000      -0.00231706       0.00046279       0.01311565
Pt       5.61442797       4.86223736      19.95723433        4       0.00000000      -0.00171421       0.00555932       0.01202556
Pt       8.42164142       4.86223724      19.95723439        4       0.00000000       0.00158039       0.00172536       0.01312821
Pt       1.40360727       0.81037261      22.29206790        3       0.00000000      -0.00000435       0.00001204       0.07144691
Pt       4.21082126       0.81037249      22.29206793        3       0.00000000       0.00870911      -0.00435281      -0.04126680
Pt       7.01803475       0.81037258      22.29206787        3       0.00000000      -0.00923043      -0.00515313      -0.04432609
Pt       2.80721449       3.24149123      22.29206778        3       0.00000000       0.00012537       0.01057579      -0.04427815
Pt       5.61442761       3.24149123      22.29206789        3       0.00000000       0.00000241      -0.00000312      -0.02813419
Pt       8.42164155       3.24149130      22.29206812        3       0.00000000      -0.00059991       0.00964669      -0.04128376
Pt       4.21082090       5.67260997      22.29206743        3       0.00000000      -0.00809238      -0.00529027      -0.04114545
Pt       7.01803489       5.67261038      22.29206778        3       0.00000000       0.00906892      -0.00542203      -0.04421598
Pt       9.82524818       5.67261058      22.29206804        3       0.00000000       0.00001323      -0.00001062      -0.04711951
Pt      -0.00000057       1.62074568      24.58417368        2       0.00000000      -0.00232459       0.00818304       0.03313128
Pt       2.80721445       1.62074549      24.58417387        2       0.00000000       0.00823122      -0.00213937       0.03323538
Pt       5.61442780       1.62074538      24.58417368        2       0.00000000       0.00198441       0.00751978       0.02257634
Pt       1.40360635       4.05186441      24.58417386        2       0.00000000      -0.00296548      -0.01104510      -0.00549477
Pt       4.21082088       4.05186391      24.58417389        2       0.00000000       0.00554815      -0.00538729       0.02289943
Pt       7.01803505       4.05186405      24.58417404        2       0.00000000      -0.00752607      -0.00181723       0.02282421
Pt       2.80721273       6.48298348      24.58417381        2       0.00000000       0.01097342       0.00299778      -0.00566275
Pt       5.61442805       6.48298330      24.58417394        2       0.00000000      -0.00584310      -0.00657635       0.03391108
Pt       8.42164222       6.48298341      24.58417373        2       0.00000000      -0.00802306       0.00799432      -0.00571015
Pt      -0.00244600      -0.00039066      26.92347687        1       0.00000000       0.00703699       0.00368197      -0.00026476
Pt       2.80876046      -0.00192347      26.92348455        1       0.00000000      -0.00671735       0.00420902      -0.00028240
Pt       5.61503008      -0.00991137      26.91070193        1       0.00000000      -0.00192183       0.01095394       0.00790199
Pt       1.40449834       2.43342391      26.92348817        1       0.00000000      -0.00031701      -0.00794737      -0.00022744
Pt       4.16934774       2.40632010      26.91120815        1       0.00000000      -0.00902438      -0.00389014       0.00274376
Pt       7.06027448       2.40762056      26.91118666        1       0.00000000       0.00795945      -0.00578067       0.00265281
Pt       2.79831317       4.86665836      26.91072365        1       0.00000000       0.01046735      -0.00378729       0.00786645
Pt       5.61368586       4.91050718      26.91135248        1       0.00000000       0.00106397       0.00956346       0.00338574
Pt       8.42992144       4.86773434      26.91073147        1       0.00000000      -0.00853533      -0.00714741       0.00784975
O        5.61437805       3.24188947      29.27314028        0       0.50000000      -0.00023445       0.00229734       0.01776764
H        5.61446671       3.24117844      28.27875096        0       0.50000000       0.00018175      -0.00190031      -0.01205391
