38
Lattice="8.421641763931781 0.0 0.0 4.2108208819658905 7.293355709136913 0.0 0.0 0.0 46.87624170604845" Properties=species:S:1:pos:R:3:tags:I:1:initial_magmoms:R:1:forces:R:3 charge=0 spin=0 energy=-194.69031855160557 free_energy=-194.69031855160557 stress="0.009629335254430771 5.1205842055424e-07 1.611357447472983e-06 5.1205842055424e-07 0.009630881249904633 -2.275839733556495e-06 1.611357447472983e-06 -2.275839733556495e-06 -0.0001087827913579531" pbc="T T T"
Pt      -0.00000001       0.00000015      19.95723445        4       0.00000000       0.00566487       0.00371164      -0.00132425
Pt       2.80721394      -0.00000009      19.95723448        4       0.00000000      -0.00605184       0.00310366      -0.00122691
Pt       5.61442781      -0.00000017      19.95723450        4       0.00000000       0.00075836      -0.00243758       0.01308211
Pt       1.40360720       2.43111836      19.95723436        4       0.00000000       0.00035104      -0.00676787      -0.00134294
Pt       4.21082078       2.43111836      19.95723446        4       0.00000000      -0.00394993      -0.00431367       0.01195520
Pt       7.01803484       2.43111844      19.95723431        4       0.00000000       0.00571421      -0.00126662       0.01196106
Pt       2.80721414       4.86223727      19.95723413        4       0.00000000      -0.00253485       0.00056396       0.01310128
Pt       5.61442797       4.86223736      19.95723433        4       0.00000000      -0.00175976       0.00557788       0.01199291
Pt       8.42164142       4.86223724      19.95723439        4       0.00000000       0.00177695       0.00185173       0.01312259
Pt       1.40360727       0.81037261      22.29206790        3       0.00000000      -0.00001246       0.00001418       0.07227239
Pt       4.21082126       0.81037249      22.29206793        3       0.00000000       0.00886652      -0.00384249      -0.04141000
Pt       7.01803475       0.81037258      22.29206787        3       0.00000000      -0.00946267      -0.00475767      -0.04466745
Pt       2.80721449       3.24149123      22.29206778        3       0.00000000       0.00057475       0.01056338      -0.04458115
Pt       5.61442761       3.24149123      22.29206789        3       0.00000000       0.00000607      -0.00000538      -0.03029953
Pt       8.42164155       3.24149130      22.29206812        3       0.00000000      -0.00109651       0.00952048      -0.04146193
Pt       4.21082090       5.67260997      22.29206743        3       0.00000000      -0.00773809      -0.00566049      -0.04129335
Pt       7.01803489       5.67261038      22.29206778        3       0.00000000       0.00883039      -0.00583347      -0.04452271
Pt       9.82524818       5.67261058      22.29206804        3       0.00000000       0.00001463      -0.00000776      -0.04480931
Pt      -0.00000057       1.62074568      24.58417368        2       0.00000000       0.00177456       0.00617811       0.03129286
Pt       2.80721445       1.62074549      24.58417387        2       0.00000000       0.00504613      -0.00435312       0.03236558
Pt       5.61442780       1.62074538      24.58417368        2       0.00000000       0.00195455       0.00179706       0.02435101
Pt       1.40360635       4.05186441      24.58417386        2       0.00000000      -0.00330170      -0.00602998       0.00170952
Pt       4.21082088       4.05186391      24.58417389        2       0.00000000       0.00055156      -0.00273022       0.02476156
Pt       7.01803505       4.05186405      24.58417404        2       0.00000000      -0.00280859       0.00142682       0.02456479
Pt       2.80721273       6.48298348      24.58417381        2       0.00000000       0.00677956       0.00019895       0.00157096
Pt       5.61442805       6.48298330      24.58417394        2       0.00000000      -0.00611934      -0.00277360       0.03314210
Pt       8.42164222       6.48298341      24.58417373        2       0.00000000      -0.00346348       0.00578934       0.00146175
Pt      -0.00421588      -0.00108240      26.92343401        1       0.00000000       0.01875447       0.00839946      -0.00087247
Pt       2.81025590      -0.00312791      26.92342259        1       0.00000000      -0.01666296       0.01202704      -0.00090848
Pt       5.61525292      -0.01062833      26.91406120        1       0.00000000      -0.00324050       0.01506679      -0.00634903
Pt       1.40479763       2.43530681      26.92344537        1       0.00000000      -0.00210072      -0.02048429      -0.00082360
Pt       4.16898388       2.40595180      26.90968175        1       0.00000000      -0.00336657      -0.00017812       0.01237734
Pt       7.06084529       2.40747092      26.90946278        1       0.00000000       0.00234624      -0.00287781       0.01117336
Pt       2.79758153       4.86683577      26.91407149        1       0.00000000       0.01462019      -0.00475251      -0.00631194
Pt       5.61350087       4.91099909      26.90983307        1       0.00000000       0.00131635       0.00279091       0.01318656
Pt       8.43043100       4.86827781      26.91406783        1       0.00000000      -0.01144305      -0.01028790      -0.00627138
O        5.61386003       3.24226661      29.27443155        0       0.50000000      -0.00318260       0.00434032       0.01391565
H        5.61486407       3.24089328      28.28014840        0       0.50000000       0.00259406      -0.00356119      -0.01488401
