38
Lattice="8.421641763931781 0.0 0.0 4.2108208819658905 7.293355709136913 0.0 0.0 0.0 46.87624170604845" Properties=species:S:1:pos:R:3:tags:I:1:initial_magmoms:R:1:forces:R:3 charge=0 spin=0 energy=-194.69038149411045 free_energy=-194.69038149411045 stress="0.009644650854170322 -1.1016585688139457e-07 -2.5122975699787276e-08 -1.1016585688139457e-07 0.009645507670938969 -1.2954243402418797e-06 -2.5122975699787276e-08 -1.2954243402418797e-06 -7.972416642587632e-05" pbc="T T T"
Pt      -0.00000001       0.00000015      19.95723445        4       0.00000000       0.00570706       0.00377006      -0.00135547
Pt       2.80721394      -0.00000009      19.95723448        4       0.00000000      -0.00609474       0.00308555      -0.00133534
Pt       5.61442781      -0.00000017      19.95723450        4       0.00000000       0.00071238      -0.00190157       0.01313205
Pt       1.40360720       2.43111836      19.95723436        4       0.00000000       0.00038816      -0.00683238      -0.00137271
Pt       4.21082078       2.43111836      19.95723446        4       0.00000000      -0.00398132      -0.00421051       0.01210270
Pt       7.01803484       2.43111844      19.95723431        4       0.00000000       0.00563432      -0.00134720       0.01211201
Pt       2.80721414       4.86223727      19.95723413        4       0.00000000      -0.00204824       0.00033415       0.01316175
Pt       5.61442797       4.86223736      19.95723433        4       0.00000000      -0.00165171       0.00555147       0.01214062
Pt       8.42164142       4.86223724      19.95723439        4       0.00000000       0.00132999       0.00156104       0.01317305
Pt       1.40360727       0.81037261      22.29206790        3       0.00000000      -0.00000215       0.00001120       0.06970899
Pt       4.21082126       0.81037249      22.29206793        3       0.00000000       0.00860082      -0.00464098      -0.04106539
Pt       7.01803475       0.81037258      22.29206787        3       0.00000000      -0.00907576      -0.00541955      -0.04380769
Pt       2.80721449       3.24149123      22.29206778        3       0.00000000      -0.00018543       0.01058102      -0.04381363
Pt       5.61442761       3.24149123      22.29206789        3       0.00000000      -0.00000092      -0.00000344      -0.02668155
Pt       8.42164155       3.24149130      22.29206812        3       0.00000000      -0.00029538       0.00970033      -0.04112575
Pt       4.21082090       5.67260997      22.29206743        3       0.00000000      -0.00829041      -0.00506457      -0.04095821
Pt       7.01803489       5.67261038      22.29206778        3       0.00000000       0.00922368      -0.00516354      -0.04371381
Pt       9.82524818       5.67261058      22.29206804        3       0.00000000       0.00001332      -0.00001898      -0.04967635
Pt      -0.00000057       1.62074568      24.58417368        2       0.00000000      -0.00681528       0.01044565       0.03759843
Pt       2.80721445       1.62074549      24.58417387        2       0.00000000       0.01240979       0.00047938       0.03755077
Pt       5.61442780       1.62074538      24.58417368        2       0.00000000       0.00203622       0.01167724       0.03176141
Pt       1.40360635       4.05186441      24.58417386        2       0.00000000      -0.00233398      -0.01428630       0.00006728
Pt       4.21082088       4.05186391      24.58417389        2       0.00000000       0.00918523      -0.00747290       0.03205759
Pt       7.01803505       4.05186405      24.58417404        2       0.00000000      -0.01116358      -0.00389087       0.03200828
Pt       2.80721273       6.48298348      24.58417381        2       0.00000000       0.01347415       0.00522746      -0.00015231
Pt       5.61442805       6.48298330      24.58417394        2       0.00000000      -0.00561829      -0.01151677       0.03824160
Pt       8.42164222       6.48298341      24.58417373        2       0.00000000      -0.01114786       0.00912133      -0.00022249
Pt       0.00034780       0.00106770      26.92458510        1       0.00000000      -0.01549371      -0.00759280      -0.00372459
Pt       2.80608617      -0.00027481      26.92458893        1       0.00000000       0.01461513      -0.00903491      -0.00369246
Pt       5.61447967      -0.00946734      26.91019692        1       0.00000000       0.00090625       0.00850110       0.00723628
Pt       1.40438474       2.43024682      26.92455028        1       0.00000000       0.00078262       0.01743178      -0.00356051
Pt       4.16930264       2.40637004      26.91413767        1       0.00000000      -0.00478739      -0.00102651      -0.01111761
Pt       7.06024298       2.40759744      26.91414174        1       0.00000000       0.00340257      -0.00368448      -0.01115039
Pt       2.79899223       4.86693954      26.91019766        1       0.00000000       0.00669872      -0.00509173       0.00727784
Pt       5.61374624       4.91058353      26.91431746        1       0.00000000       0.00146283       0.00390622      -0.01031804
Pt       8.42980610       4.86707357      26.91021116        1       0.00000000      -0.00759094      -0.00369333       0.00725180
O        5.61442428       3.24187799      29.27794568        0       0.50000000       0.00005806       0.00237230       0.00567276
H        5.61441467       3.24112660      28.28330586        0       0.50000000      -0.00006423      -0.00186399      -0.00341080
