38
Lattice="8.421641763931781 0.0 0.0 4.2108208819658905 7.293355709136913 0.0 0.0 0.0 46.87624170604845" Properties=species:S:1:pos:R:3:tags:I:1:initial_magmoms:R:1:forces:R:3 charge=0 spin=0 energy=-194.69032427365147 free_energy=-194.69032427365147 stress="0.009629505686461926 5.156302336217777e-07 1.6309915054080193e-06 5.156302336217777e-07 0.009631038643419743 -2.2630438252235763e-06 1.6309915054080193e-06 -2.2630438252235763e-06 -0.00010913958976743743" pbc="T T T"
Pt      -0.00000001       0.00000015      19.95723445        4       0.00000000       0.00566493       0.00371185      -0.00132351
Pt       2.80721394      -0.00000009      19.95723448        4       0.00000000      -0.00605229       0.00310353      -0.00122512
Pt       5.61442781      -0.00000017      19.95723450        4       0.00000000       0.00075819      -0.00243788       0.01308211
Pt       1.40360720       2.43111836      19.95723436        4       0.00000000       0.00035113      -0.00676844      -0.00134122
Pt       4.21082078       2.43111836      19.95723446        4       0.00000000      -0.00394865      -0.00431286       0.01195550
Pt       7.01803484       2.43111844      19.95723431        4       0.00000000       0.00571288      -0.00126608       0.01196135
Pt       2.80721414       4.86223727      19.95723413        4       0.00000000      -0.00253469       0.00056450       0.01310124
Pt       5.61442797       4.86223736      19.95723433        4       0.00000000      -0.00175951       0.00557634       0.01199333
Pt       8.42164142       4.86223724      19.95723439        4       0.00000000       0.00177722       0.00185172       0.01312274
Pt       1.40360727       0.81037261      22.29206790        3       0.00000000      -0.00001270       0.00001393       0.07225247
Pt       4.21082126       0.81037249      22.29206793        3       0.00000000       0.00886646      -0.00384110      -0.04140799
Pt       7.01803475       0.81037258      22.29206787        3       0.00000000      -0.00946288      -0.00475523      -0.04466379
Pt       2.80721449       3.24149123      22.29206778        3       0.00000000       0.00057725       0.01056223      -0.04457827
Pt       5.61442761       3.24149123      22.29206789        3       0.00000000       0.00000632      -0.00000490      -0.03029675
Pt       8.42164155       3.24149130      22.29206812        3       0.00000000      -0.00109768       0.00952016      -0.04145954
Pt       4.21082090       5.67260997      22.29206743        3       0.00000000      -0.00773750      -0.00566110      -0.04129205
Pt       7.01803489       5.67261038      22.29206778        3       0.00000000       0.00882796      -0.00583498      -0.04451961
Pt       9.82524818       5.67261058      22.29206804        3       0.00000000       0.00001413      -0.00000772      -0.04480506
Pt      -0.00000057       1.62074568      24.58417368        2       0.00000000       0.00179768       0.00616004       0.03123003
Pt       2.80721445       1.62074549      24.58417387        2       0.00000000       0.00502889      -0.00436291       0.03231429
Pt       5.61442780       1.62074538      24.58417368        2       0.00000000       0.00195432       0.00182018       0.02439190
Pt       1.40360635       4.05186441      24.58417386        2       0.00000000      -0.00330550      -0.00602432       0.00168879
Pt       4.21082088       4.05186391      24.58417389        2       0.00000000       0.00056987      -0.00274810       0.02479691
Pt       7.01803505       4.05186405      24.58417404        2       0.00000000      -0.00282778       0.00141663       0.02460269
Pt       2.80721273       6.48298348      24.58417381        2       0.00000000       0.00677658       0.00019845       0.00155509
Pt       5.61442805       6.48298330      24.58417394        2       0.00000000      -0.00611585      -0.00274163       0.03307706
Pt       8.42164222       6.48298341      24.58417373        2       0.00000000      -0.00345998       0.00578938       0.00144805
Pt      -0.00421821      -0.00108419      26.92342943        1       0.00000000       0.01876258       0.00841193      -0.00084618
Pt       2.81025846      -0.00312898      26.92341783        1       0.00000000      -0.01667609       0.01202973      -0.00088694
Pt       5.61525231      -0.01062659      26.91405827        1       0.00000000      -0.00323851       0.01510089      -0.00632630
Pt       1.40479809       2.43530977      26.92343949        1       0.00000000      -0.00209964      -0.02050130      -0.00079037
Pt       4.16897513       2.40594694      26.90968550        1       0.00000000      -0.00311375      -0.00002728       0.01245597
Pt       7.06085425       2.40746540      26.90946455        1       0.00000000       0.00209690      -0.00274266       0.01123364
Pt       2.79758320       4.86683529      26.91406891        1       0.00000000       0.01464496      -0.00476521      -0.00627668
Pt       5.61350040       4.91100975      26.90983376        1       0.00000000       0.00132282       0.00250441       0.01325338
Pt       8.43043018       4.86827682      26.91406548        1       0.00000000      -0.01147480      -0.01030455      -0.00625005
O        5.61385429       3.24226107      29.27457903        0       0.50000000      -0.00323082       0.00431857       0.01508299
H        5.61486895       3.24089706      28.28033480        0       0.50000000       0.00263772      -0.00354610      -0.01630992
