38
Lattice="8.421641763931781 0.0 0.0 4.2108208819658905 7.293355709136913 0.0 0.0 0.0 46.87624170604845" Properties=species:S:1:pos:R:3:tags:I:1:initial_magmoms:R:1:forces:R:3 charge=0 spin=0 energy=-194.69032427365147 free_energy=-194.69032427365147 stress="0.009629150852560997 5.119525781083212e-07 1.6106283737826743e-06 5.119525781083212e-07 0.009630698710680008 -2.2806912056694273e-06 1.6106283737826743e-06 -2.2806912056694273e-06 -0.00010841637413250282" pbc="T T T"
Pt      -0.00000001       0.00000015      19.95723445        4       0.00000000       0.00566455       0.00371131      -0.00132601
Pt       2.80721394      -0.00000009      19.95723448        4       0.00000000      -0.00605151       0.00310379      -0.00122805
Pt       5.61442781      -0.00000017      19.95723450        4       0.00000000       0.00075880      -0.00243757       0.01308207
Pt       1.40360720       2.43111836      19.95723436        4       0.00000000       0.00035093      -0.00676784      -0.00134461
Pt       4.21082078       2.43111836      19.95723446        4       0.00000000      -0.00395078      -0.00431478       0.01195459
Pt       7.01803484       2.43111844      19.95723431        4       0.00000000       0.00571562      -0.00126707       0.01196034
Pt       2.80721414       4.86223727      19.95723413        4       0.00000000      -0.00253474       0.00056375       0.01310126
Pt       5.61442797       4.86223736      19.95723433        4       0.00000000      -0.00176004       0.00557919       0.01199244
Pt       8.42164142       4.86223724      19.95723439        4       0.00000000       0.00177675       0.00185226       0.01312274
Pt       1.40360727       0.81037261      22.29206790        3       0.00000000      -0.00001223       0.00001413       0.07229615
Pt       4.21082126       0.81037249      22.29206793        3       0.00000000       0.00886615      -0.00384457      -0.04141312
Pt       7.01803475       0.81037258      22.29206787        3       0.00000000      -0.00946256      -0.00476128      -0.04467081
Pt       2.80721449       3.24149123      22.29206778        3       0.00000000       0.00057164       0.01056475      -0.04458535
Pt       5.61442761       3.24149123      22.29206789        3       0.00000000       0.00000648      -0.00000457      -0.03030298
Pt       8.42164155       3.24149130      22.29206812        3       0.00000000      -0.00109555       0.00952166      -0.04146445
Pt       4.21082090       5.67260997      22.29206743        3       0.00000000      -0.00773979      -0.00565964      -0.04129709
Pt       7.01803489       5.67261038      22.29206778        3       0.00000000       0.00883291      -0.00583149      -0.04452619
Pt       9.82524818       5.67261058      22.29206804        3       0.00000000       0.00001353      -0.00000808      -0.04481545
Pt      -0.00000057       1.62074568      24.58417368        2       0.00000000       0.00175273       0.00618787       0.03136387
Pt       2.80721445       1.62074549      24.58417387        2       0.00000000       0.00506973      -0.00433913       0.03244370
Pt       5.61442780       1.62074538      24.58417368        2       0.00000000       0.00195372       0.00177190       0.02431316
Pt       1.40360635       4.05186441      24.58417386        2       0.00000000      -0.00330069      -0.00603639       0.00172994
Pt       4.21082088       4.05186391      24.58417389        2       0.00000000       0.00053157      -0.00271865       0.02471599
Pt       7.01803505       4.05186405      24.58417404        2       0.00000000      -0.00278557       0.00143447       0.02452087
Pt       2.80721273       6.48298348      24.58417381        2       0.00000000       0.00678350       0.00020478       0.00159214
Pt       5.61442805       6.48298330      24.58417394        2       0.00000000      -0.00612176      -0.00279746       0.03321208
Pt       8.42164222       6.48298341      24.58417373        2       0.00000000      -0.00346691       0.00579587       0.00148374
Pt      -0.00421346      -0.00108157      26.92344117        1       0.00000000       0.01874168       0.00840122      -0.00091306
Pt       2.81025335      -0.00312692      26.92342977        1       0.00000000      -0.01665143       0.01203144      -0.00095371
Pt       5.61525342      -0.01062942      26.91406382        1       0.00000000      -0.00324392       0.01503200      -0.00638660
Pt       1.40479756       2.43530430      26.92345154        1       0.00000000      -0.00209302      -0.02047624      -0.00086611
Pt       4.16899363       2.40595713      26.90967941        1       0.00000000      -0.00365819      -0.00034930       0.01228837
Pt       7.06083636       2.40747623      26.90945961        1       0.00000000       0.00263492      -0.00304081       0.01107936
Pt       2.79758003       4.86683609      26.91407441        1       0.00000000       0.01457933      -0.00473108      -0.00633450
Pt       5.61350047       4.91098861      26.90982967        1       0.00000000       0.00131686       0.00311531       0.01310968
Pt       8.43043183       4.86827906      26.91407074        1       0.00000000      -0.01140437      -0.01027685      -0.00629916
O        5.61385615       3.24226714      29.27426062        0       0.50000000      -0.00318126       0.00435393       0.01268656
H        5.61486729       3.24089280      28.27993368        0       0.50000000       0.00259285      -0.00357678      -0.01332159
