38
Lattice="8.421641763931781 0.0 0.0 4.2108208819658905 7.293355709136913 0.0 0.0 0.0 46.87624170604845" Properties=species:S:1:pos:R:3:tags:I:1:initial_magmoms:R:1:forces:R:3 charge=0 spin=0 energy=-194.69032427365147 free_energy=-194.69032427365147 stress="0.009629596956074238 5.209115556681354e-07 1.6372320033042342e-06 5.209115556681354e-07 0.0096311429515481 -2.286752078362042e-06 1.6372320033042342e-06 -2.286752078362042e-06 -0.00010974711767630652" pbc="T T T"
Pt      -0.00000001       0.00000015      19.95723445        4       0.00000000       0.00566638       0.00371309      -0.00132269
Pt       2.80721394      -0.00000009      19.95723448        4       0.00000000      -0.00605436       0.00310444      -0.00122368
Pt       5.61442781      -0.00000017      19.95723450        4       0.00000000       0.00075826      -0.00243839       0.01308190
Pt       1.40360720       2.43111836      19.95723436        4       0.00000000       0.00035161      -0.00677033      -0.00134048
Pt       4.21082078       2.43111836      19.95723446        4       0.00000000      -0.00394796      -0.00431227       0.01195595
Pt       7.01803484       2.43111844      19.95723431        4       0.00000000       0.00571202      -0.00126602       0.01196191
Pt       2.80721414       4.86223727      19.95723413        4       0.00000000      -0.00253504       0.00056493       0.01310083
Pt       5.61442797       4.86223736      19.95723433        4       0.00000000      -0.00175943       0.00557552       0.01199394
Pt       8.42164142       4.86223724      19.95723439        4       0.00000000       0.00177796       0.00185165       0.01312231
Pt       1.40360727       0.81037261      22.29206790        3       0.00000000      -0.00001238       0.00001381       0.07224935
Pt       4.21082126       0.81037249      22.29206793        3       0.00000000       0.00886843      -0.00384045      -0.04140874
Pt       7.01803475       0.81037258      22.29206787        3       0.00000000      -0.00946486      -0.00475292      -0.04466388
Pt       2.80721449       3.24149123      22.29206778        3       0.00000000       0.00057985       0.01056285      -0.04457784
Pt       5.61442761       3.24149123      22.29206789        3       0.00000000       0.00000635      -0.00000458      -0.03029015
Pt       8.42164155       3.24149130      22.29206812        3       0.00000000      -0.00109998       0.00952170      -0.04146007
Pt       4.21082090       5.67260997      22.29206743        3       0.00000000      -0.00773756      -0.00566359      -0.04129183
Pt       7.01803489       5.67261038      22.29206778        3       0.00000000       0.00882675      -0.00583772      -0.04451908
Pt       9.82524818       5.67261058      22.29206804        3       0.00000000       0.00001405      -0.00000770      -0.04480470
Pt      -0.00000057       1.62074568      24.58417368        2       0.00000000       0.00183323       0.00613710       0.03114237
Pt       2.80721445       1.62074549      24.58417387        2       0.00000000       0.00499394      -0.00437987       0.03223599
Pt       5.61442780       1.62074538      24.58417368        2       0.00000000       0.00195743       0.00185727       0.02444196
Pt       1.40360635       4.05186441      24.58417386        2       0.00000000      -0.00330436      -0.00602697       0.00167023
Pt       4.21082088       4.05186391      24.58417389        2       0.00000000       0.00059972      -0.00276492       0.02485099
Pt       7.01803505       4.05186405      24.58417404        2       0.00000000      -0.00286089       0.00140121       0.02465593
Pt       2.80721273       6.48298348      24.58417381        2       0.00000000       0.00677894       0.00019638       0.00152898
Pt       5.61442805       6.48298330      24.58417394        2       0.00000000      -0.00611688      -0.00270921       0.03299854
Pt       8.42164222       6.48298341      24.58417373        2       0.00000000      -0.00345998       0.00579306       0.00141862
Pt      -0.00421913      -0.00108439      26.92342716        1       0.00000000       0.01875464       0.00840643      -0.00080876
Pt       2.81025909      -0.00312983      26.92341584        1       0.00000000      -0.01666561       0.01203379      -0.00085110
Pt       5.61525185      -0.01062612      26.91405368        1       0.00000000      -0.00323563       0.01515507      -0.00628620
Pt       1.40479738       2.43531049      26.92343840        1       0.00000000      -0.00209202      -0.02048876      -0.00076196
Pt       4.16894962       2.40593244      26.90968392        1       0.00000000      -0.00274824       0.00019697       0.01254401
Pt       7.06088079       2.40744970      26.90946129        1       0.00000000       0.00171756      -0.00251820       0.01131413
Pt       2.79758367       4.86683610      26.91406347        1       0.00000000       0.01468477      -0.00479996      -0.00624455
Pt       5.61350083       4.91103927      26.90983298        1       0.00000000       0.00132394       0.00205760       0.01335367
Pt       8.43042979       4.86827561      26.91406061        1       0.00000000      -0.01151589      -0.01033646      -0.00620980
O        5.61384932       3.24226643      29.27470727        0       0.50000000      -0.00323856       0.00438055       0.01696433
H        5.61487251       3.24089368      28.28052534        0       0.50000000       0.00264372      -0.00360525      -0.01852043
