38
Lattice="8.421641763931781 0.0 0.0 4.2108208819658905 7.293355709136913 0.0 0.0 0.0 46.87624170604845" Properties=species:S:1:pos:R:3:tags:I:1:initial_magmoms:R:1:forces:R:3 charge=0 spin=0 energy=-194.69044634396397 free_energy=-194.69044634396397 stress="0.009615783579647541 -2.24251497371597e-08 1.5679758291753387e-07 -2.24251497371597e-08 0.00961660873144865 -1.1943463960051304e-06 1.5679758291753387e-07 -1.1943463960051304e-06 -0.00013174285413697362" pbc="T T T"
Pt      -0.00000001       0.00000015      19.95723445        4       0.00000000       0.00570034       0.00374735      -0.00136119
Pt       2.80721394      -0.00000009      19.95723448        4       0.00000000      -0.00607434       0.00309788      -0.00133106
Pt       5.61442781      -0.00000017      19.95723450        4       0.00000000       0.00073387      -0.00220123       0.01308446
Pt       1.40360720       2.43111836      19.95723436        4       0.00000000       0.00036809      -0.00681558      -0.00137135
Pt       4.21082078       2.43111836      19.95723446        4       0.00000000      -0.00395763      -0.00426723       0.01198707
Pt       7.01803484       2.43111844      19.95723431        4       0.00000000       0.00567420      -0.00129377       0.01199581
Pt       2.80721414       4.86223727      19.95723413        4       0.00000000      -0.00231699       0.00046286       0.01311555
Pt       5.61442797       4.86223736      19.95723433        4       0.00000000      -0.00171434       0.00555950       0.01202569
Pt       8.42164142       4.86223724      19.95723439        4       0.00000000       0.00158035       0.00172533       0.01312825
Pt       1.40360727       0.81037261      22.29206790        3       0.00000000      -0.00000434       0.00001208       0.07145112
Pt       4.21082126       0.81037249      22.29206793        3       0.00000000       0.00870981      -0.00435236      -0.04126663
Pt       7.01803475       0.81037258      22.29206787        3       0.00000000      -0.00923027      -0.00515313      -0.04432568
Pt       2.80721449       3.24149123      22.29206778        3       0.00000000       0.00012534       0.01057588      -0.04427859
Pt       5.61442761       3.24149123      22.29206789        3       0.00000000       0.00000233      -0.00000337      -0.02813387
Pt       8.42164155       3.24149130      22.29206812        3       0.00000000      -0.00060000       0.00964686      -0.04128494
Pt       4.21082090       5.67260997      22.29206743        3       0.00000000      -0.00809279      -0.00529019      -0.04114523
Pt       7.01803489       5.67261038      22.29206778        3       0.00000000       0.00906927      -0.00542187      -0.04421704
Pt       9.82524818       5.67261058      22.29206804        3       0.00000000       0.00001313      -0.00001019      -0.04712030
Pt      -0.00000057       1.62074568      24.58417368        2       0.00000000      -0.00231998       0.00818456       0.03312469
Pt       2.80721445       1.62074549      24.58417387        2       0.00000000       0.00823869      -0.00213372       0.03324426
Pt       5.61442780       1.62074538      24.58417368        2       0.00000000       0.00197880       0.00751889       0.02257808
Pt       1.40360635       4.05186441      24.58417386        2       0.00000000      -0.00296349      -0.01104684      -0.00549979
Pt       4.21082088       4.05186391      24.58417389        2       0.00000000       0.00554522      -0.00539199       0.02289834
Pt       7.01803505       4.05186405      24.58417404        2       0.00000000      -0.00752759      -0.00181859       0.02281690
Pt       2.80721273       6.48298348      24.58417381        2       0.00000000       0.01097277       0.00299743      -0.00566164
Pt       5.61442805       6.48298330      24.58417394        2       0.00000000      -0.00584165      -0.00657577       0.03390814
Pt       8.42164222       6.48298341      24.58417373        2       0.00000000      -0.00802444       0.00799509      -0.00571456
Pt      -0.00244537      -0.00039115      26.92347665        1       0.00000000       0.00702814       0.00368527      -0.00026071
Pt       2.80876005      -0.00192333      26.92348404        1       0.00000000      -0.00671301       0.00420780      -0.00028172
Pt       5.61502945      -0.00991210      26.91070181        1       0.00000000      -0.00191918       0.01096146       0.00789970
Pt       1.40449851       2.43342385      26.92348876        1       0.00000000      -0.00031766      -0.00794444      -0.00022447
Pt       4.16934648       2.40631939      26.91120852        1       0.00000000      -0.00901422      -0.00388758       0.00275648
Pt       7.06027613       2.40761954      26.91118387        1       0.00000000       0.00796599      -0.00579821       0.00263797
Pt       2.79831264       4.86665864      26.91072350        1       0.00000000       0.01046429      -0.00378893       0.00786597
Pt       5.61368573       4.91050937      26.91135101        1       0.00000000       0.00105716       0.00956685       0.00338093
Pt       8.42992153       4.86773450      26.91073072        1       0.00000000      -0.00853221      -0.00714679       0.00785994
O        5.61436928       3.24188960      29.27312393        0       0.50000000      -0.00030706       0.00225923       0.01778019
H        5.61447351       3.24117859      28.27873518        0       0.50000000       0.00024318      -0.00186253      -0.01206053
