38
Lattice="8.421641763931781 0.0 0.0 4.2108208819658905 7.293355709136913 0.0 0.0 0.0 46.87624170604845" Properties=species:S:1:pos:R:3:tags:I:1:initial_magmoms:R:1:forces:R:3 charge=0 spin=0 energy=-194.69036432797276 free_energy=-194.69036432797276 stress="0.009590856730937958 1.7150267872523273e-09 2.4965791567410633e-07 1.7150267872523273e-09 0.009590988978743553 -5.414923620605805e-09 2.4965791567410633e-07 -5.414923620605805e-09 -0.000159337098011747" pbc="T T T"
Pt      -0.00000001       0.00000015      19.95723445        4       0.00000000       0.00566620       0.00377135      -0.00139913
Pt       2.80721394      -0.00000009      19.95723448        4       0.00000000      -0.00607939       0.00305224      -0.00136634
Pt       5.61442781      -0.00000017      19.95723450        4       0.00000000       0.00081227      -0.00214610       0.01306432
Pt       1.40360720       2.43111836      19.95723436        4       0.00000000       0.00040710      -0.00681723      -0.00135581
Pt       4.21082078       2.43111836      19.95723446        4       0.00000000      -0.00402827      -0.00417879       0.01199394
Pt       7.01803484       2.43111844      19.95723431        4       0.00000000       0.00563264      -0.00139801       0.01200355
Pt       2.80721414       4.86223727      19.95723413        4       0.00000000      -0.00230188       0.00037271       0.01310242
Pt       5.61442797       4.86223736      19.95723433        4       0.00000000      -0.00160298       0.00557628       0.01203054
Pt       8.42164142       4.86223724      19.95723439        4       0.00000000       0.00149227       0.00176706       0.01311695
Pt       1.40360727       0.81037261      22.29206790        3       0.00000000      -0.00000235       0.00000405       0.07111843
Pt       4.21082126       0.81037249      22.29206793        3       0.00000000       0.00865058      -0.00413995      -0.04159601
Pt       7.01803475       0.81037258      22.29206787        3       0.00000000      -0.00919223      -0.00511007      -0.04369347
Pt       2.80721449       3.24149123      22.29206778        3       0.00000000       0.00016561       0.01052619      -0.04360257
Pt       5.61442761       3.24149123      22.29206789        3       0.00000000       0.00000505      -0.00000961      -0.02845667
Pt       8.42164155       3.24149130      22.29206812        3       0.00000000      -0.00076830       0.00949024      -0.04156716
Pt       4.21082090       5.67260997      22.29206743        3       0.00000000      -0.00787692      -0.00533888      -0.04146156
Pt       7.01803489       5.67261038      22.29206778        3       0.00000000       0.00901335      -0.00541556      -0.04359363
Pt       9.82524818       5.67261058      22.29206804        3       0.00000000       0.00000749       0.00000348      -0.04669982
Pt      -0.00000057       1.62074568      24.58417368        2       0.00000000      -0.00490195       0.00901484       0.02098882
Pt       2.80721445       1.62074549      24.58417387        2       0.00000000       0.01016250      -0.00009764       0.02116867
Pt       5.61442780       1.62074538      24.58417368        2       0.00000000       0.00290096       0.00692889       0.02090660
Pt       1.40360635       4.05186441      24.58417386        2       0.00000000      -0.00144735      -0.00850429      -0.00936659
Pt       4.21082088       4.05186391      24.58417389        2       0.00000000       0.00432726      -0.00602677       0.02106193
Pt       7.01803505       4.05186405      24.58417404        2       0.00000000      -0.00728868      -0.00083302       0.02094045
Pt       2.80721273       6.48298348      24.58417381        2       0.00000000       0.00792086       0.00294918      -0.00970180
Pt       5.61442805       6.48298330      24.58417394        2       0.00000000      -0.00518547      -0.00875801       0.02077956
Pt       8.42164222       6.48298341      24.58417373        2       0.00000000      -0.00644336       0.00532406      -0.00977134
Pt      -0.00136514      -0.00023338      26.92094492        1       0.00000000      -0.00471432       0.00296635       0.01373942
Pt       2.80807694      -0.00111659      26.92093703        1       0.00000000      -0.00003261      -0.00511864       0.01376707
Pt       5.61365253      -0.01023701      26.91063999        1       0.00000000       0.00578101       0.01324413       0.00772110
Pt       1.40410351       2.43238436      26.92105085        1       0.00000000       0.00480477       0.00270938       0.01320870
Pt       4.16912646       2.40555621      26.91039766        1       0.00000000      -0.00343610       0.00528910       0.00914423
Pt       7.06106155       2.40784023      26.91036888        1       0.00000000      -0.00300721      -0.00595050       0.00897355
Pt       2.79869535       4.86803404      26.91068962        1       0.00000000       0.00862369      -0.01176282       0.00757761
Pt       5.61311524       4.91111811      26.91034859        1       0.00000000       0.00638206       0.00023463       0.00928397
Pt       8.43091368       4.86668993      26.91069268        1       0.00000000      -0.01435559      -0.00159265       0.00759726
O        5.61434821       3.24148949      29.27386105        0       0.50000000      -0.00049655      -0.00006079      -0.02027849
H        5.61449091       3.24150540      28.27855499        0       0.50000000       0.00040574       0.00003533       0.02062149
