38
Lattice="8.421641763931781 0.0 0.0 4.2108208819658905 7.293355709136913 0.0 0.0 0.0 46.87624170604845" Properties=species:S:1:pos:R:3:tags:I:1:initial_magmoms:R:1:forces:R:3 charge=0 spin=0 energy=-194.69032236630284 free_energy=-194.69032236630284 stress="0.009629211388528347 5.166327241568069e-07 1.6287738162645837e-06 5.166327241568069e-07 0.00963076576590538 -2.286144763274933e-06 1.6287738162645837e-06 -2.286144763274933e-06 -0.00010824509081430733" pbc="T T T"
Pt      -0.00000001       0.00000015      19.95723445        4       0.00000000       0.00566379       0.00371058      -0.00132599
Pt       2.80721394      -0.00000009      19.95723448        4       0.00000000      -0.00605070       0.00310342      -0.00122758
Pt       5.61442781      -0.00000017      19.95723450        4       0.00000000       0.00075857      -0.00243708       0.01308234
Pt       1.40360720       2.43111836      19.95723436        4       0.00000000       0.00035079      -0.00676650      -0.00134440
Pt       4.21082078       2.43111836      19.95723446        4       0.00000000      -0.00395077      -0.00431467       0.01195446
Pt       7.01803484       2.43111844      19.95723431        4       0.00000000       0.00571556      -0.00126693       0.01196034
Pt       2.80721414       4.86223727      19.95723413        4       0.00000000      -0.00253434       0.00056345       0.01310141
Pt       5.61442797       4.86223736      19.95723433        4       0.00000000      -0.00176002       0.00557918       0.01199233
Pt       8.42164142       4.86223724      19.95723439        4       0.00000000       0.00177628       0.00185185       0.01312293
Pt       1.40360727       0.81037261      22.29206790        3       0.00000000      -0.00001255       0.00001388       0.07228334
Pt       4.21082126       0.81037249      22.29206793        3       0.00000000       0.00886547      -0.00384444      -0.04141110
Pt       7.01803475       0.81037258      22.29206787        3       0.00000000      -0.00946170      -0.00476144      -0.04466936
Pt       2.80721449       3.24149123      22.29206778        3       0.00000000       0.00057139       0.01056426      -0.04458230
Pt       5.61442761       3.24149123      22.29206789        3       0.00000000       0.00000634      -0.00000557      -0.03030508
Pt       8.42164155       3.24149130      22.29206812        3       0.00000000      -0.00109483       0.00952030      -0.04146264
Pt       4.21082090       5.67260997      22.29206743        3       0.00000000      -0.00773938      -0.00565844      -0.04129500
Pt       7.01803489       5.67261038      22.29206778        3       0.00000000       0.00883244      -0.00583068      -0.04452308
Pt       9.82524818       5.67261058      22.29206804        3       0.00000000       0.00001382      -0.00000724      -0.04481521
Pt      -0.00000057       1.62074568      24.58417368        2       0.00000000       0.00175203       0.00619139       0.03137121
Pt       2.80721445       1.62074549      24.58417387        2       0.00000000       0.00507755      -0.00433492       0.03246174
Pt       5.61442780       1.62074538      24.58417368        2       0.00000000       0.00194861       0.00176546       0.02430309
Pt       1.40360635       4.05186441      24.58417386        2       0.00000000      -0.00330219      -0.00603739       0.00174115
Pt       4.21082088       4.05186391      24.58417389        2       0.00000000       0.00052283      -0.00271604       0.02471015
Pt       7.01803505       4.05186405      24.58417404        2       0.00000000      -0.00277844       0.00144281       0.02451343
Pt       2.80721273       6.48298348      24.58417381        2       0.00000000       0.00678393       0.00020198       0.00159924
Pt       5.61442805       6.48298330      24.58417394        2       0.00000000      -0.00611554      -0.00280473       0.03322473
Pt       8.42164222       6.48298341      24.58417373        2       0.00000000      -0.00347020       0.00579504       0.00149243
Pt      -0.00421266      -0.00108052      26.92343996        1       0.00000000       0.01874089       0.00839769      -0.00091785
Pt       2.81025251      -0.00312589      26.92342924        1       0.00000000      -0.01664961       0.01202263      -0.00096647
Pt       5.61525347      -0.01062966      26.91406504        1       0.00000000      -0.00324681       0.01502779      -0.00638783
Pt       1.40479795       2.43530304      26.92345145        1       0.00000000      -0.00210029      -0.02047264      -0.00087699
Pt       4.16900500       2.40596440      26.90968257        1       0.00000000      -0.00373585      -0.00039362       0.01227535
Pt       7.06082496       2.40748313      26.90946083        1       0.00000000       0.00272139      -0.00309234       0.01106293
Pt       2.79758002       4.86683548      26.91407578        1       0.00000000       0.01457935      -0.00472481      -0.00634536
Pt       5.61350024       4.91097447      26.90983293        1       0.00000000       0.00131811       0.00321194       0.01310179
Pt       8.43043195       4.86827908      26.91407215        1       0.00000000      -0.01140433      -0.01027468      -0.00630893
O        5.61385411       3.24226825      29.27428090        0       0.50000000      -0.00322141       0.00436413       0.01223135
H        5.61486916       3.24089170      28.27994059        0       0.50000000       0.00262960      -0.00358348      -0.01282053
