38
Lattice="8.421641763931781 0.0 0.0 4.2108208819658905 7.293355709136913 0.0 0.0 0.0 46.87624170604845" Properties=species:S:1:pos:R:3:tags:I:1:initial_magmoms:R:1:forces:R:3 charge=0 spin=0 energy=-194.69038912350499 free_energy=-194.69038912350499 stress="0.009644712321460247 -1.0847383435930169e-07 -1.9505597137481345e-08 -1.0847383435930169e-07 0.009645569138228893 -1.3048196478848695e-06 -1.9505597137481345e-08 -1.3048196478848695e-06 -7.965452823555097e-05" pbc="T T T"
Pt      -0.00000001       0.00000015      19.95723445        4       0.00000000       0.00570666       0.00376991      -0.00135530
Pt       2.80721394      -0.00000009      19.95723448        4       0.00000000      -0.00609449       0.00308528      -0.00133488
Pt       5.61442781      -0.00000017      19.95723450        4       0.00000000       0.00071234      -0.00190134       0.01313192
Pt       1.40360720       2.43111836      19.95723436        4       0.00000000       0.00038806      -0.00683199      -0.00137239
Pt       4.21082078       2.43111836      19.95723446        4       0.00000000      -0.00398095      -0.00421050       0.01210296
Pt       7.01803484       2.43111844      19.95723431        4       0.00000000       0.00563395      -0.00134729       0.01211199
Pt       2.80721414       4.86223727      19.95723413        4       0.00000000      -0.00204809       0.00033423       0.01316194
Pt       5.61442797       4.86223736      19.95723433        4       0.00000000      -0.00165159       0.00555132       0.01214055
Pt       8.42164142       4.86223724      19.95723439        4       0.00000000       0.00132997       0.00156095       0.01317284
Pt       1.40360727       0.81037261      22.29206790        3       0.00000000      -0.00000228       0.00001085       0.06970078
Pt       4.21082126       0.81037249      22.29206793        3       0.00000000       0.00859992      -0.00464031      -0.04106490
Pt       7.01803475       0.81037258      22.29206787        3       0.00000000      -0.00907508      -0.00541891      -0.04380661
Pt       2.80721449       3.24149123      22.29206778        3       0.00000000      -0.00018522       0.01058027      -0.04381112
Pt       5.61442761       3.24149123      22.29206789        3       0.00000000      -0.00000079      -0.00000274      -0.02668158
Pt       8.42164155       3.24149130      22.29206812        3       0.00000000      -0.00029500       0.00970005      -0.04112484
Pt       4.21082090       5.67260997      22.29206743        3       0.00000000      -0.00828966      -0.00506433      -0.04095711
Pt       7.01803489       5.67261038      22.29206778        3       0.00000000       0.00922244      -0.00516349      -0.04371323
Pt       9.82524818       5.67261058      22.29206804        3       0.00000000       0.00001366      -0.00001899      -0.04967558
Pt      -0.00000057       1.62074568      24.58417368        2       0.00000000      -0.00681711       0.01044313       0.03759355
Pt       2.80721445       1.62074549      24.58417387        2       0.00000000       0.01241596       0.00047901       0.03755333
Pt       5.61442780       1.62074538      24.58417368        2       0.00000000       0.00203440       0.01167969       0.03176773
Pt       1.40360635       4.05186441      24.58417386        2       0.00000000      -0.00233429      -0.01428478       0.00006721
Pt       4.21082088       4.05186391      24.58417389        2       0.00000000       0.00918590      -0.00747415       0.03206392
Pt       7.01803505       4.05186405      24.58417404        2       0.00000000      -0.01116470      -0.00388984       0.03201360
Pt       2.80721273       6.48298348      24.58417381        2       0.00000000       0.01347224       0.00522788      -0.00015353
Pt       5.61442805       6.48298330      24.58417394        2       0.00000000      -0.00561753      -0.01151786       0.03823495
Pt       8.42164222       6.48298341      24.58417373        2       0.00000000      -0.01114685       0.00912222      -0.00022111
Pt       0.00034765       0.00106762      26.92458334        1       0.00000000      -0.01549380      -0.00759009      -0.00371859
Pt       2.80608634      -0.00027488      26.92458745        1       0.00000000       0.01461717      -0.00903319      -0.00369055
Pt       5.61447982      -0.00946715      26.91019719        1       0.00000000       0.00090195       0.00850049       0.00724065
Pt       1.40438472       2.43024669      26.92454922        1       0.00000000       0.00078429       0.01743058      -0.00355618
Pt       4.16930569       2.40637203      26.91413988        1       0.00000000      -0.00478314      -0.00102116      -0.01111986
Pt       7.06024014       2.40759919      26.91414436        1       0.00000000       0.00339509      -0.00367519      -0.01114914
Pt       2.79899257       4.86693949      26.91019901        1       0.00000000       0.00670136      -0.00509301       0.00728164
Pt       5.61374590       4.91057946      26.91432081        1       0.00000000       0.00146422       0.00388781      -0.01030389
Pt       8.42980584       4.86707326      26.91021239        1       0.00000000      -0.00759561      -0.00369425       0.00725206
O        5.61442279       3.24187754      29.27797845        0       0.50000000       0.00004004       0.00240177       0.00555249
H        5.61441630       3.24112734      28.28333737        0       0.50000000      -0.00004335      -0.00189201      -0.00333354
