38
Lattice="8.421641763931781 0.0 0.0 4.2108208819658905 7.293355709136913 0.0 0.0 0.0 46.87624170604845" Properties=species:S:1:pos:R:3:tags:I:1:initial_magmoms:R:1:forces:R:3 charge=0 spin=0 energy=-194.69038721615635 free_energy=-194.69038721615635 stress="0.009644684381783009 -1.0516161808027391e-07 -2.025246814696402e-08 -1.0516161808027391e-07 0.009645549580454826 -1.2937489373143762e-06 -2.025246814696402e-08 -1.2937489373143762e-06 -7.970748993102461e-05" pbc="T T T"
Pt      -0.00000001       0.00000015      19.95723445        4       0.00000000       0.00570682       0.00376981      -0.00135513
Pt       2.80721394      -0.00000009      19.95723448        4       0.00000000      -0.00609439       0.00308538      -0.00133484
Pt       5.61442781      -0.00000017      19.95723450        4       0.00000000       0.00071226      -0.00190175       0.01313205
Pt       1.40360720       2.43111836      19.95723436        4       0.00000000       0.00038794      -0.00683190      -0.00137254
Pt       4.21082078       2.43111836      19.95723446        4       0.00000000      -0.00398121      -0.00421051       0.01210277
Pt       7.01803484       2.43111844      19.95723431        4       0.00000000       0.00563414      -0.00134701       0.01211184
Pt       2.80721414       4.86223727      19.95723413        4       0.00000000      -0.00204811       0.00033425       0.01316190
Pt       5.61442797       4.86223736      19.95723433        4       0.00000000      -0.00165162       0.00555115       0.01214068
Pt       8.42164142       4.86223724      19.95723439        4       0.00000000       0.00133002       0.00156104       0.01317318
Pt       1.40360727       0.81037261      22.29206790        3       0.00000000      -0.00000242       0.00001127       0.06970150
Pt       4.21082126       0.81037249      22.29206793        3       0.00000000       0.00860020      -0.00464064      -0.04106468
Pt       7.01803475       0.81037258      22.29206787        3       0.00000000      -0.00907536      -0.00541966      -0.04380637
Pt       2.80721449       3.24149123      22.29206778        3       0.00000000      -0.00018573       0.01058067      -0.04381235
Pt       5.61442761       3.24149123      22.29206789        3       0.00000000      -0.00000072      -0.00000310      -0.02668141
Pt       8.42164155       3.24149130      22.29206812        3       0.00000000      -0.00029472       0.00970028      -0.04112592
Pt       4.21082090       5.67260997      22.29206743        3       0.00000000      -0.00829041      -0.00506403      -0.04095725
Pt       7.01803489       5.67261038      22.29206778        3       0.00000000       0.00922328      -0.00516340      -0.04371283
Pt       9.82524818       5.67261058      22.29206804        3       0.00000000       0.00001333      -0.00001860      -0.04967587
Pt      -0.00000057       1.62074568      24.58417368        2       0.00000000      -0.00681363       0.01044041       0.03759133
Pt       2.80721445       1.62074549      24.58417387        2       0.00000000       0.01240961       0.00047880       0.03754737
Pt       5.61442780       1.62074538      24.58417368        2       0.00000000       0.00203342       0.01167814       0.03176377
Pt       1.40360635       4.05186441      24.58417386        2       0.00000000      -0.00233644      -0.01428405       0.00006500
Pt       4.21082088       4.05186391      24.58417389        2       0.00000000       0.00918583      -0.00747360       0.03206328
Pt       7.01803505       4.05186405      24.58417404        2       0.00000000      -0.01116607      -0.00388829       0.03201133
Pt       2.80721273       6.48298348      24.58417381        2       0.00000000       0.01347521       0.00522530      -0.00015113
Pt       5.61442805       6.48298330      24.58417394        2       0.00000000      -0.00561460      -0.01151635       0.03824130
Pt       8.42164222       6.48298341      24.58417373        2       0.00000000      -0.01114673       0.00912333      -0.00021936
Pt       0.00034768       0.00106752      26.92458486        1       0.00000000      -0.01548883      -0.00759508      -0.00372849
Pt       2.80608650      -0.00027523      26.92458834        1       0.00000000       0.01461590      -0.00903299      -0.00369675
Pt       5.61447994      -0.00946618      26.91019672        1       0.00000000       0.00089510       0.00850146       0.00723588
Pt       1.40438483       2.43024699      26.92454981        1       0.00000000       0.00077977       0.01742665      -0.00355438
Pt       4.16930518       2.40637197      26.91413914        1       0.00000000      -0.00478885      -0.00102838      -0.01112066
Pt       7.06024010       2.40759909      26.91414335        1       0.00000000       0.00340607      -0.00368734      -0.01115247
Pt       2.79899285       4.86693906      26.91019891        1       0.00000000       0.00670929      -0.00508883       0.00727663
Pt       5.61374614       4.91057939      26.91431991        1       0.00000000       0.00146362       0.00391532      -0.01032652
Pt       8.42980549       4.86707291      26.91021160        1       0.00000000      -0.00759435      -0.00369528       0.00725155
O        5.61442378       3.24187833      29.27797137        0       0.50000000       0.00004112       0.00237319       0.00560660
H        5.61441518       3.24112655      28.28332954        0       0.50000000      -0.00004851      -0.00186578      -0.00332887
