38
Lattice="8.421641763931781 0.0 0.0 4.2108208819658905 7.293355709136913 0.0 0.0 0.0 46.87624170604845" Properties=species:S:1:pos:R:3:tags:I:1:initial_magmoms:R:1:forces:R:3 charge=0 spin=0 energy=-194.69036432797276 free_energy=-194.69036432797276 stress="0.0095908734947443 -3.5966774003526325e-09 2.421133729058056e-07 -3.5966774003526325e-09 0.009591003879904747 6.530484597533359e-09 2.421133729058056e-07 6.530484597533359e-09 -0.00015933712711557746" pbc="T T T"
Pt      -0.00000001       0.00000015      19.95723445        4       0.00000000       0.00566622       0.00377152      -0.00139902
Pt       2.80721394      -0.00000009      19.95723448        4       0.00000000      -0.00607950       0.00305225      -0.00136626
Pt       5.61442781      -0.00000017      19.95723450        4       0.00000000       0.00081238      -0.00214604       0.01306432
Pt       1.40360720       2.43111836      19.95723436        4       0.00000000       0.00040728      -0.00681752      -0.00135562
Pt       4.21082078       2.43111836      19.95723446        4       0.00000000      -0.00402827      -0.00417886       0.01199382
Pt       7.01803484       2.43111844      19.95723431        4       0.00000000       0.00563259      -0.00139793       0.01200351
Pt       2.80721414       4.86223727      19.95723413        4       0.00000000      -0.00230169       0.00037254       0.01310236
Pt       5.61442797       4.86223736      19.95723433        4       0.00000000      -0.00160303       0.00557635       0.01203069
Pt       8.42164142       4.86223724      19.95723439        4       0.00000000       0.00149234       0.00176699       0.01311705
Pt       1.40360727       0.81037261      22.29206790        3       0.00000000      -0.00000270       0.00000421       0.07111843
Pt       4.21082126       0.81037249      22.29206793        3       0.00000000       0.00865077      -0.00413999      -0.04159612
Pt       7.01803475       0.81037258      22.29206787        3       0.00000000      -0.00919261      -0.00510960      -0.04369291
Pt       2.80721449       3.24149123      22.29206778        3       0.00000000       0.00016538       0.01052586      -0.04360361
Pt       5.61442761       3.24149123      22.29206789        3       0.00000000       0.00000541      -0.00000989      -0.02845621
Pt       8.42164155       3.24149130      22.29206812        3       0.00000000      -0.00076874       0.00949043      -0.04156753
Pt       4.21082090       5.67260997      22.29206743        3       0.00000000      -0.00787690      -0.00533898      -0.04146126
Pt       7.01803489       5.67261038      22.29206778        3       0.00000000       0.00901337      -0.00541565      -0.04359329
Pt       9.82524818       5.67261058      22.29206804        3       0.00000000       0.00000702       0.00000275      -0.04669930
Pt      -0.00000057       1.62074568      24.58417368        2       0.00000000      -0.00490039       0.00901366       0.02098962
Pt       2.80721445       1.62074549      24.58417387        2       0.00000000       0.01015932      -0.00009907       0.02116493
Pt       5.61442780       1.62074538      24.58417368        2       0.00000000       0.00290317       0.00692790       0.02090338
Pt       1.40360635       4.05186441      24.58417386        2       0.00000000      -0.00144490      -0.00850411      -0.00936561
Pt       4.21082088       4.05186391      24.58417389        2       0.00000000       0.00432779      -0.00602525       0.02105786
Pt       7.01803505       4.05186405      24.58417404        2       0.00000000      -0.00728870      -0.00083325       0.02094001
Pt       2.80721273       6.48298348      24.58417381        2       0.00000000       0.00792259       0.00295081      -0.00969633
Pt       5.61442805       6.48298330      24.58417394        2       0.00000000      -0.00518980      -0.00875553       0.02078213
Pt       8.42164222       6.48298341      24.58417373        2       0.00000000      -0.00644439       0.00532183      -0.00976890
Pt      -0.00136491      -0.00023342      26.92094549        1       0.00000000      -0.00471588       0.00296607       0.01373084
Pt       2.80807702      -0.00111635      26.92093725        1       0.00000000      -0.00003539      -0.00512231       0.01376597
Pt       5.61365235      -0.01023610      26.91064097        1       0.00000000       0.00578654       0.01323524       0.00772190
Pt       1.40410320       2.43238443      26.92105123        1       0.00000000       0.00481202       0.00270900       0.01320444
Pt       4.16912597       2.40555599      26.91039643        1       0.00000000      -0.00342110       0.00529160       0.00916140
Pt       7.06106190       2.40784037      26.91036887        1       0.00000000      -0.00302425      -0.00594692       0.00898844
Pt       2.79869614       4.86803326      26.91068973        1       0.00000000       0.00861056      -0.01175671       0.00757981
Pt       5.61311494       4.91111807      26.91034825        1       0.00000000       0.00638453       0.00023176       0.00928729
Pt       8.43091292       4.86668945      26.91069316        1       0.00000000      -0.01435112      -0.00158435       0.00759665
O        5.61434894       3.24148858      29.27386686        0       0.50000000      -0.00048421      -0.00008445      -0.02023514
H        5.61449022       3.24150614      28.27856162        0       0.50000000       0.00039444       0.00005549       0.02055240
