38
Lattice="8.421641763931781 0.0 0.0 4.2108208819658905 7.293355709136913 0.0 0.0 0.0 46.87624170604845" Properties=species:S:1:pos:R:3:tags:I:1:initial_magmoms:R:1:forces:R:3 charge=0 spin=0 energy=-194.69032427365147 free_energy=-194.69032427365147 stress="0.009629400447010994 5.122434458826319e-07 1.614373331904062e-06 5.122434458826319e-07 0.009630954824388027 -2.289782742082025e-06 1.614373331904062e-06 -2.289782742082025e-06 -0.00010913920414168388" pbc="T T T"
Pt      -0.00000001       0.00000015      19.95723445        4       0.00000000       0.00566576       0.00371243      -0.00132368
Pt       2.80721394      -0.00000009      19.95723448        4       0.00000000      -0.00605301       0.00310421      -0.00122582
Pt       5.61442781      -0.00000017      19.95723450        4       0.00000000       0.00075834      -0.00243790       0.01308181
Pt       1.40360720       2.43111836      19.95723436        4       0.00000000       0.00035126      -0.00676917      -0.00134270
Pt       4.21082078       2.43111836      19.95723446        4       0.00000000      -0.00394912      -0.00431330       0.01195548
Pt       7.01803484       2.43111844      19.95723431        4       0.00000000       0.00571358      -0.00126660       0.01196120
Pt       2.80721414       4.86223727      19.95723413        4       0.00000000      -0.00253488       0.00056432       0.01310094
Pt       5.61442797       4.86223736      19.95723433        4       0.00000000      -0.00175959       0.00557712       0.01199314
Pt       8.42164142       4.86223724      19.95723439        4       0.00000000       0.00177748       0.00185187       0.01312210
Pt       1.40360727       0.81037261      22.29206790        3       0.00000000      -0.00001248       0.00001384       0.07226931
Pt       4.21082126       0.81037249      22.29206793        3       0.00000000       0.00886694      -0.00384214      -0.04141015
Pt       7.01803475       0.81037258      22.29206787        3       0.00000000      -0.00946375      -0.00475622      -0.04466746
Pt       2.80721449       3.24149123      22.29206778        3       0.00000000       0.00057613       0.01056348      -0.04458128
Pt       5.61442761       3.24149123      22.29206789        3       0.00000000       0.00000590      -0.00000468      -0.03029596
Pt       8.42164155       3.24149130      22.29206812        3       0.00000000      -0.00109811       0.00952134      -0.04146267
Pt       4.21082090       5.67260997      22.29206743        3       0.00000000      -0.00773816      -0.00566201      -0.04129428
Pt       7.01803489       5.67261038      22.29206778        3       0.00000000       0.00882883      -0.00583498      -0.04452230
Pt       9.82524818       5.67261058      22.29206804        3       0.00000000       0.00001408      -0.00000791      -0.04480872
Pt      -0.00000057       1.62074568      24.58417368        2       0.00000000       0.00179432       0.00616086       0.03124703
Pt       2.80721445       1.62074549      24.58417387        2       0.00000000       0.00502910      -0.00436614       0.03232368
Pt       5.61442780       1.62074538      24.58417368        2       0.00000000       0.00195643       0.00181876       0.02438410
Pt       1.40360635       4.05186441      24.58417386        2       0.00000000      -0.00330145      -0.00602966       0.00169042
Pt       4.21082088       4.05186391      24.58417389        2       0.00000000       0.00057012      -0.00274337       0.02478795
Pt       7.01803505       4.05186405      24.58417404        2       0.00000000      -0.00282748       0.00141569       0.02459321
Pt       2.80721273       6.48298348      24.58417381        2       0.00000000       0.00677810       0.00020160       0.00155716
Pt       5.61442805       6.48298330      24.58417394        2       0.00000000      -0.00611977      -0.00274762       0.03309797
Pt       8.42164222       6.48298341      24.58417373        2       0.00000000      -0.00346225       0.00579289       0.00144799
Pt      -0.00421796      -0.00108405      26.92343303        1       0.00000000       0.01875965       0.00841224      -0.00085670
Pt       2.81025797      -0.00312885      26.92342177        1       0.00000000      -0.01667197       0.01203174      -0.00089603
Pt       5.61525243      -0.01062715      26.91405803        1       0.00000000      -0.00323363       0.01509036      -0.00632861
Pt       1.40479788       2.43530909      26.92344367        1       0.00000000      -0.00210036      -0.02049758      -0.00080080
Pt       4.16896905       2.40594334      26.90968045        1       0.00000000      -0.00314822      -0.00004778       0.01242598
Pt       7.06086030       2.40746226      26.90946114        1       0.00000000       0.00212798      -0.00275355       0.01121432
Pt       2.79758279       4.86683575      26.91406884        1       0.00000000       0.01463474      -0.00476267      -0.00628145
Pt       5.61350072       4.91101589      26.90983226        1       0.00000000       0.00132241       0.00252833       0.01325770
Pt       8.43043028       4.86827715      26.91406490        1       0.00000000      -0.01147036      -0.01030190      -0.00624721
O        5.61385744       3.24226959      29.27451143        0       0.50000000      -0.00319990       0.00437334       0.01502795
H        5.61486626       3.24089076      28.28026307        0       0.50000000       0.00261358      -0.00358935      -0.01619393
