38
Lattice="8.421641763931781 0.0 0.0 4.2108208819658905 7.293355709136913 0.0 0.0 0.0 46.87624170604845" Properties=species:S:1:pos:R:3:tags:I:1:initial_magmoms:R:1:forces:R:3 charge=0 spin=0 energy=-194.69031855160557 free_energy=-194.69031855160557 stress="0.009629239328205585 5.114103487358079e-07 1.61099933393416e-06 5.114103487358079e-07 0.009630809538066387 -2.307536760781659e-06 1.61099933393416e-06 -2.307536760781659e-06 -0.00010874703002627939" pbc="T T T"
Pt      -0.00000001       0.00000015      19.95723445        4       0.00000000       0.00566527       0.00371175      -0.00132491
Pt       2.80721394      -0.00000009      19.95723448        4       0.00000000      -0.00605235       0.00310400      -0.00122665
Pt       5.61442781      -0.00000017      19.95723450        4       0.00000000       0.00075864      -0.00243786       0.01308194
Pt       1.40360720       2.43111836      19.95723436        4       0.00000000       0.00035121      -0.00676820      -0.00134421
Pt       4.21082078       2.43111836      19.95723446        4       0.00000000      -0.00395025      -0.00431399       0.01195518
Pt       7.01803484       2.43111844      19.95723431        4       0.00000000       0.00571468      -0.00126688       0.01196065
Pt       2.80721414       4.86223727      19.95723413        4       0.00000000      -0.00253515       0.00056397       0.01310094
Pt       5.61442797       4.86223736      19.95723433        4       0.00000000      -0.00175984       0.00557837       0.01199282
Pt       8.42164142       4.86223724      19.95723439        4       0.00000000       0.00177713       0.00185209       0.01312231
Pt       1.40360727       0.81037261      22.29206790        3       0.00000000      -0.00001229       0.00001414       0.07228553
Pt       4.21082126       0.81037249      22.29206793        3       0.00000000       0.00886679      -0.00384338      -0.04141216
Pt       7.01803475       0.81037258      22.29206787        3       0.00000000      -0.00946297      -0.00475866      -0.04467000
Pt       2.80721449       3.24149123      22.29206778        3       0.00000000       0.00057407       0.01056398      -0.04458343
Pt       5.61442761       3.24149123      22.29206789        3       0.00000000       0.00000634      -0.00000468      -0.03029959
Pt       8.42164155       3.24149130      22.29206812        3       0.00000000      -0.00109671       0.00952153      -0.04146353
Pt       4.21082090       5.67260997      22.29206743        3       0.00000000      -0.00773861      -0.00566095      -0.04129623
Pt       7.01803489       5.67261038      22.29206778        3       0.00000000       0.00883104      -0.00583319      -0.04452371
Pt       9.82524818       5.67261058      22.29206804        3       0.00000000       0.00001405      -0.00000790      -0.04481200
Pt      -0.00000057       1.62074568      24.58417368        2       0.00000000       0.00177412       0.00617092       0.03129854
Pt       2.80721445       1.62074549      24.58417387        2       0.00000000       0.00505180      -0.00435342       0.03238686
Pt       5.61442780       1.62074538      24.58417368        2       0.00000000       0.00195440       0.00179351       0.02433855
Pt       1.40360635       4.05186441      24.58417386        2       0.00000000      -0.00329973      -0.00602927       0.00171271
Pt       4.21082088       4.05186391      24.58417389        2       0.00000000       0.00055005      -0.00272626       0.02474744
Pt       7.01803505       4.05186405      24.58417404        2       0.00000000      -0.00280389       0.00143059       0.02455315
Pt       2.80721273       6.48298348      24.58417381        2       0.00000000       0.00678150       0.00020211       0.00157565
Pt       5.61442805       6.48298330      24.58417394        2       0.00000000      -0.00612300      -0.00278165       0.03316711
Pt       8.42164222       6.48298341      24.58417373        2       0.00000000      -0.00346605       0.00579320       0.00146379
Pt      -0.00421583      -0.00108267      26.92343634        1       0.00000000       0.01874709       0.00840328      -0.00088636
Pt       2.81025563      -0.00312802      26.92342529        1       0.00000000      -0.01666377       0.01203144      -0.00092739
Pt       5.61525312      -0.01062837      26.91406125        1       0.00000000      -0.00323258       0.01505696      -0.00635511
Pt       1.40479747       2.43530699      26.92344728        1       0.00000000      -0.00209188      -0.02048702      -0.00082614
Pt       4.16898108       2.40595085      26.90967997        1       0.00000000      -0.00342940      -0.00021008       0.01234785
Pt       7.06084887       2.40746925      26.90945910        1       0.00000000       0.00239867      -0.00289932       0.01115256
Pt       2.79758101       4.86683583      26.91407178        1       0.00000000       0.01459894      -0.00474268      -0.00631181
Pt       5.61350051       4.91100143      26.90983205        1       0.00000000       0.00132162       0.00284151       0.01319097
Pt       8.43043101       4.86827802      26.91406796        1       0.00000000      -0.01143391      -0.01028972      -0.00627933
O        5.61385592       3.24227263      29.27437000        0       0.50000000      -0.00317808       0.00442332       0.01373321
H        5.61486774       3.24088819      28.28007969        0       0.50000000       0.00259313      -0.00364173      -0.01462507
