38
Lattice="8.421641763931781 0.0 0.0 4.2108208819658905 7.293355709136913 0.0 0.0 0.0 46.87624170604845" Properties=species:S:1:pos:R:3:tags:I:1:initial_magmoms:R:1:forces:R:3 charge=0 spin=0 energy=-194.69038721615635 free_energy=-194.69038721615635 stress="0.009644711390137672 -1.0847015374793045e-07 -2.175399416159962e-08 -1.0847015374793045e-07 0.009645574726164341 -1.3093801953800721e-06 -2.175399416159962e-08 -1.3093801953800721e-06 -7.969709258759394e-05" pbc="T T T"
Pt      -0.00000001       0.00000015      19.95723445        4       0.00000000       0.00570660       0.00376985      -0.00135494
Pt       2.80721394      -0.00000009      19.95723448        4       0.00000000      -0.00609427       0.00308534      -0.00133471
Pt       5.61442781      -0.00000017      19.95723450        4       0.00000000       0.00071230      -0.00190160       0.01313215
Pt       1.40360720       2.43111836      19.95723436        4       0.00000000       0.00038810      -0.00683175      -0.00137237
Pt       4.21082078       2.43111836      19.95723446        4       0.00000000      -0.00398095      -0.00421036       0.01210294
Pt       7.01803484       2.43111844      19.95723431        4       0.00000000       0.00563398      -0.00134738       0.01211195
Pt       2.80721414       4.86223727      19.95723413        4       0.00000000      -0.00204821       0.00033419       0.01316201
Pt       5.61442797       4.86223736      19.95723433        4       0.00000000      -0.00165158       0.00555119       0.01214074
Pt       8.42164142       4.86223724      19.95723439        4       0.00000000       0.00132996       0.00156104       0.01317308
Pt       1.40360727       0.81037261      22.29206790        3       0.00000000      -0.00000218       0.00001093       0.06969946
Pt       4.21082126       0.81037249      22.29206793        3       0.00000000       0.00859997      -0.00464018      -0.04106458
Pt       7.01803475       0.81037258      22.29206787        3       0.00000000      -0.00907514      -0.00541902      -0.04380622
Pt       2.80721449       3.24149123      22.29206778        3       0.00000000      -0.00018509       0.01058035      -0.04381096
Pt       5.61442761       3.24149123      22.29206789        3       0.00000000      -0.00000074      -0.00000281      -0.02668156
Pt       8.42164155       3.24149130      22.29206812        3       0.00000000      -0.00029515       0.00970028      -0.04112491
Pt       4.21082090       5.67260997      22.29206743        3       0.00000000      -0.00828978      -0.00506462      -0.04095730
Pt       7.01803489       5.67261038      22.29206778        3       0.00000000       0.00922222      -0.00516359      -0.04371244
Pt       9.82524818       5.67261058      22.29206804        3       0.00000000       0.00001376      -0.00001843      -0.04967414
Pt      -0.00000057       1.62074568      24.58417368        2       0.00000000      -0.00681194       0.01043997       0.03758820
Pt       2.80721445       1.62074549      24.58417387        2       0.00000000       0.01240914       0.00047795       0.03754717
Pt       5.61442780       1.62074538      24.58417368        2       0.00000000       0.00203416       0.01167581       0.03176320
Pt       1.40360635       4.05186441      24.58417386        2       0.00000000      -0.00233501      -0.01428381       0.00006647
Pt       4.21082088       4.05186391      24.58417389        2       0.00000000       0.00918600      -0.00747192       0.03206161
Pt       7.01803505       4.05186405      24.58417404        2       0.00000000      -0.01116485      -0.00388787       0.03201086
Pt       2.80721273       6.48298348      24.58417381        2       0.00000000       0.01347072       0.00522734      -0.00015218
Pt       5.61442805       6.48298330      24.58417394        2       0.00000000      -0.00561647      -0.01151810       0.03823831
Pt       8.42164222       6.48298341      24.58417373        2       0.00000000      -0.01114398       0.00912374      -0.00021971
Pt       0.00034710       0.00106726      26.92458355        1       0.00000000      -0.01548451      -0.00759021      -0.00372111
Pt       2.80608719      -0.00027520      26.92458765        1       0.00000000       0.01460900      -0.00903054      -0.00369210
Pt       5.61448001      -0.00946634      26.91019763        1       0.00000000       0.00089976       0.00849803       0.00723028
Pt       1.40438462       2.43024749      26.92454938        1       0.00000000       0.00078143       0.01742244      -0.00355695
Pt       4.16930652       2.40637262      26.91413951        1       0.00000000      -0.00478873      -0.00102125      -0.01111560
Pt       7.06023886       2.40759933      26.91414335        1       0.00000000       0.00340273      -0.00367506      -0.01114049
Pt       2.79899290       4.86693957      26.91019882        1       0.00000000       0.00670214      -0.00509198       0.00728234
Pt       5.61374616       4.91057796      26.91432044        1       0.00000000       0.00146362       0.00389920      -0.01030771
Pt       8.42980566       4.86707268      26.91021241        1       0.00000000      -0.00759390      -0.00369514       0.00725310
O        5.61442357       3.24187878      29.27798327        0       0.50000000       0.00004747       0.00241289       0.00563298
H        5.61441541       3.24112641      28.28334316        0       0.50000000      -0.00005054      -0.00190479      -0.00339677
