38
Lattice="8.421641763931781 0.0 0.0 4.2108208819658905 7.293355709136913 0.0 0.0 0.0 46.87624170604845" Properties=species:S:1:pos:R:3:tags:I:1:initial_magmoms:R:1:forces:R:3 charge=0 spin=0 energy=-194.69036242062413 free_energy=-194.69036242062413 stress="0.009590830653905869 1.6174461769935533e-09 2.3636657431325148e-07 1.6174461769935533e-09 0.009590964764356613 9.11352593391257e-09 2.3636657431325148e-07 9.11352593391257e-09 -0.00015935504052322358" pbc="T T T"
Pt      -0.00000001       0.00000015      19.95723445        4       0.00000000       0.00566642       0.00377153      -0.00139938
Pt       2.80721394      -0.00000009      19.95723448        4       0.00000000      -0.00607967       0.00305224      -0.00136673
Pt       5.61442781      -0.00000017      19.95723450        4       0.00000000       0.00081244      -0.00214605       0.01306421
Pt       1.40360720       2.43111836      19.95723436        4       0.00000000       0.00040715      -0.00681766      -0.00135583
Pt       4.21082078       2.43111836      19.95723446        4       0.00000000      -0.00402852      -0.00417902       0.01199384
Pt       7.01803484       2.43111844      19.95723431        4       0.00000000       0.00563280      -0.00139827       0.01200366
Pt       2.80721414       4.86223727      19.95723413        4       0.00000000      -0.00230203       0.00037253       0.01310234
Pt       5.61442797       4.86223736      19.95723433        4       0.00000000      -0.00160303       0.00557655       0.01203065
Pt       8.42164142       4.86223724      19.95723439        4       0.00000000       0.00149239       0.00176714       0.01311710
Pt       1.40360727       0.81037261      22.29206790        3       0.00000000      -0.00000266       0.00000396       0.07112357
Pt       4.21082126       0.81037249      22.29206793        3       0.00000000       0.00865128      -0.00414023      -0.04159682
Pt       7.01803475       0.81037258      22.29206787        3       0.00000000      -0.00919275      -0.00510983      -0.04369368
Pt       2.80721449       3.24149123      22.29206778        3       0.00000000       0.00016558       0.01052629      -0.04360471
Pt       5.61442761       3.24149123      22.29206789        3       0.00000000       0.00000552      -0.00000974      -0.02845472
Pt       8.42164155       3.24149130      22.29206812        3       0.00000000      -0.00076906       0.00949060      -0.04156844
Pt       4.21082090       5.67260997      22.29206743        3       0.00000000      -0.00787691      -0.00533854      -0.04146317
Pt       7.01803489       5.67261038      22.29206778        3       0.00000000       0.00901377      -0.00541588      -0.04359435
Pt       9.82524818       5.67261058      22.29206804        3       0.00000000       0.00000684       0.00000288      -0.04669961
Pt      -0.00000057       1.62074568      24.58417368        2       0.00000000      -0.00490721       0.00901739       0.02099722
Pt       2.80721445       1.62074549      24.58417387        2       0.00000000       0.01016435      -0.00009363       0.02117429
Pt       5.61442780       1.62074538      24.58417368        2       0.00000000       0.00290331       0.00692986       0.02090953
Pt       1.40360635       4.05186441      24.58417386        2       0.00000000      -0.00144515      -0.00850375      -0.00936847
Pt       4.21082088       4.05186391      24.58417389        2       0.00000000       0.00432855      -0.00602807       0.02106139
Pt       7.01803505       4.05186405      24.58417404        2       0.00000000      -0.00728826      -0.00083690       0.02094306
Pt       2.80721273       6.48298348      24.58417381        2       0.00000000       0.00792318       0.00295007      -0.00970042
Pt       5.61442805       6.48298330      24.58417394        2       0.00000000      -0.00519089      -0.00875912       0.02078508
Pt       8.42164222       6.48298341      24.58417373        2       0.00000000      -0.00644294       0.00532220      -0.00977017
Pt      -0.00136507      -0.00023342      26.92094563        1       0.00000000      -0.00471448       0.00296397       0.01373306
Pt       2.80807701      -0.00111642      26.92093709        1       0.00000000      -0.00003199      -0.00511966       0.01376820
Pt       5.61365226      -0.01023687      26.91064071        1       0.00000000       0.00578210       0.01324349       0.00771885
Pt       1.40410313       2.43238449      26.92105097        1       0.00000000       0.00481501       0.00270932       0.01321023
Pt       4.16912437       2.40555477      26.91039794        1       0.00000000      -0.00344160       0.00527776       0.00913244
Pt       7.06106364       2.40783910      26.91036914        1       0.00000000      -0.00301225      -0.00595131       0.00896810
Pt       2.79869559       4.86803371      26.91068940        1       0.00000000       0.00861769      -0.01176248       0.00757901
Pt       5.61311523       4.91112071      26.91034809        1       0.00000000       0.00638578       0.00024909       0.00926575
Pt       8.43091352       4.86668964      26.91069249        1       0.00000000      -0.01435379      -0.00158606       0.00759678
O        5.61434894       3.24148825      29.27383886        0       0.50000000      -0.00046099      -0.00009536      -0.02018374
H        5.61449001       3.24150658      28.27853404        0       0.50000000       0.00037001       0.00006460       0.02054184
