38
Lattice="8.421641763931781 0.0 0.0 4.2108208819658905 7.293355709136913 0.0 0.0 0.0 46.87624170604845" Properties=species:S:1:pos:R:3:tags:I:1:initial_magmoms:R:1:forces:R:3 charge=0 spin=0 energy=-194.69044634396397 free_energy=-194.69044634396397 stress="0.009615822695195675 -2.9334970008676464e-08 1.3948240962236014e-07 -2.9334970008676464e-08 0.00961665902286768 -1.2069140211679041e-06 1.3948240962236014e-07 -1.2069140211679041e-06 -0.00013168543227948248" pbc="T T T"
Pt      -0.00000001       0.00000015      19.95723445        4       0.00000000       0.00570051       0.00374708      -0.00136058
Pt       2.80721394      -0.00000009      19.95723448        4       0.00000000      -0.00607372       0.00309764      -0.00133148
Pt       5.61442781      -0.00000017      19.95723450        4       0.00000000       0.00073355      -0.00220116       0.01308444
Pt       1.40360720       2.43111836      19.95723436        4       0.00000000       0.00036800      -0.00681511      -0.00137137
Pt       4.21082078       2.43111836      19.95723446        4       0.00000000      -0.00395753      -0.00426731       0.01198680
Pt       7.01803484       2.43111844      19.95723431        4       0.00000000       0.00567405      -0.00129363       0.01199575
Pt       2.80721414       4.86223727      19.95723413        4       0.00000000      -0.00231691       0.00046282       0.01311565
Pt       5.61442797       4.86223736      19.95723433        4       0.00000000      -0.00171434       0.00555928       0.01202567
Pt       8.42164142       4.86223724      19.95723439        4       0.00000000       0.00158028       0.00172520       0.01312804
Pt       1.40360727       0.81037261      22.29206790        3       0.00000000      -0.00000391       0.00001226       0.07144623
Pt       4.21082126       0.81037249      22.29206793        3       0.00000000       0.00870901      -0.00435229      -0.04126645
Pt       7.01803475       0.81037258      22.29206787        3       0.00000000      -0.00923011      -0.00515248      -0.04432388
Pt       2.80721449       3.24149123      22.29206778        3       0.00000000       0.00012590       0.01057576      -0.04427706
Pt       5.61442761       3.24149123      22.29206789        3       0.00000000       0.00000198      -0.00000260      -0.02813459
Pt       8.42164155       3.24149130      22.29206812        3       0.00000000      -0.00059998       0.00964675      -0.04128314
Pt       4.21082090       5.67260997      22.29206743        3       0.00000000      -0.00809195      -0.00529035      -0.04114443
Pt       7.01803489       5.67261038      22.29206778        3       0.00000000       0.00906867      -0.00542178      -0.04421618
Pt       9.82524818       5.67261058      22.29206804        3       0.00000000       0.00001328      -0.00001029      -0.04712006
Pt      -0.00000057       1.62074568      24.58417368        2       0.00000000      -0.00232409       0.00818405       0.03313611
Pt       2.80721445       1.62074549      24.58417387        2       0.00000000       0.00823340      -0.00213994       0.03323919
Pt       5.61442780       1.62074538      24.58417368        2       0.00000000       0.00198357       0.00751845       0.02257161
Pt       1.40360635       4.05186441      24.58417386        2       0.00000000      -0.00296446      -0.01104642      -0.00549582
Pt       4.21082088       4.05186391      24.58417389        2       0.00000000       0.00554652      -0.00538607       0.02289736
Pt       7.01803505       4.05186405      24.58417404        2       0.00000000      -0.00752813      -0.00181788       0.02281902
Pt       2.80721273       6.48298348      24.58417381        2       0.00000000       0.01097250       0.00299861      -0.00566082
Pt       5.61442805       6.48298330      24.58417394        2       0.00000000      -0.00584132      -0.00657821       0.03391445
Pt       8.42164222       6.48298341      24.58417373        2       0.00000000      -0.00802503       0.00799668      -0.00571454
Pt      -0.00244609      -0.00039063      26.92347735        1       0.00000000       0.00703627       0.00368456      -0.00026563
Pt       2.80876036      -0.00192355      26.92348464        1       0.00000000      -0.00671926       0.00421140      -0.00028609
Pt       5.61503007      -0.00991147      26.91070083        1       0.00000000      -0.00191744       0.01095047       0.00790375
Pt       1.40449848       2.43342379      26.92348827        1       0.00000000      -0.00031930      -0.00794688      -0.00022990
Pt       4.16934871       2.40632031      26.91120795        1       0.00000000      -0.00902507      -0.00388071       0.00276365
Pt       7.06027367       2.40762093      26.91118697        1       0.00000000       0.00796862      -0.00578625       0.00265294
Pt       2.79831289       4.86665848      26.91072264        1       0.00000000       0.01046207      -0.00378841       0.00786874
Pt       5.61368596       4.91050652      26.91135209        1       0.00000000       0.00105462       0.00955724       0.00339872
Pt       8.42992087       4.86773444      26.91073089        1       0.00000000      -0.00852649      -0.00714770       0.00786202
O        5.61437704       3.24188937      29.27314195        0       0.50000000      -0.00027850       0.00230808       0.01772930
H        5.61446735       3.24117877      28.27875400        0       0.50000000       0.00022460      -0.00191094      -0.01205773
