38
Lattice="8.421641763931781 0.0 0.0 4.2108208819658905 7.293355709136913 0.0 0.0 0.0 46.87624170604845" Properties=species:S:1:pos:R:3:tags:I:1:initial_magmoms:R:1:forces:R:3 charge=0 spin=0 energy=-194.69045015866124 free_energy=-194.69045015866124 stress="0.009615839459002018 -2.3497618073520243e-08 1.5843170331208967e-07 -2.3497618073520243e-08 0.009616686031222343 -1.2144701031502336e-06 1.5843170331208967e-07 -1.2144701031502336e-06 -0.00013169489102438092" pbc="T T T"
Pt      -0.00000001       0.00000015      19.95723445        4       0.00000000       0.00570038       0.00374712      -0.00136073
Pt       2.80721394      -0.00000009      19.95723448        4       0.00000000      -0.00607374       0.00309750      -0.00133085
Pt       5.61442781      -0.00000017      19.95723450        4       0.00000000       0.00073368      -0.00220136       0.01308451
Pt       1.40360720       2.43111836      19.95723436        4       0.00000000       0.00036784      -0.00681503      -0.00137156
Pt       4.21082078       2.43111836      19.95723446        4       0.00000000      -0.00395746      -0.00426705       0.01198674
Pt       7.01803484       2.43111844      19.95723431        4       0.00000000       0.00567406      -0.00129344       0.01199566
Pt       2.80721414       4.86223727      19.95723413        4       0.00000000      -0.00231690       0.00046303       0.01311563
Pt       5.61442797       4.86223736      19.95723433        4       0.00000000      -0.00171439       0.00555925       0.01202550
Pt       8.42164142       4.86223724      19.95723439        4       0.00000000       0.00158042       0.00172505       0.01312821
Pt       1.40360727       0.81037261      22.29206790        3       0.00000000      -0.00000442       0.00001166       0.07144243
Pt       4.21082126       0.81037249      22.29206793        3       0.00000000       0.00870863      -0.00435255      -0.04126654
Pt       7.01803475       0.81037258      22.29206787        3       0.00000000      -0.00923033      -0.00515296      -0.04432505
Pt       2.80721449       3.24149123      22.29206778        3       0.00000000       0.00012567       0.01057544      -0.04427643
Pt       5.61442761       3.24149123      22.29206789        3       0.00000000       0.00000182      -0.00000279      -0.02813476
Pt       8.42164155       3.24149130      22.29206812        3       0.00000000      -0.00059977       0.00964673      -0.04128279
Pt       4.21082090       5.67260997      22.29206743        3       0.00000000      -0.00809222      -0.00529027      -0.04114383
Pt       7.01803489       5.67261038      22.29206778        3       0.00000000       0.00906848      -0.00542154      -0.04421511
Pt       9.82524818       5.67261058      22.29206804        3       0.00000000       0.00001396      -0.00001026      -0.04711902
Pt      -0.00000057       1.62074568      24.58417368        2       0.00000000      -0.00231971       0.00818258       0.03312764
Pt       2.80721445       1.62074549      24.58417387        2       0.00000000       0.00823552      -0.00213946       0.03324400
Pt       5.61442780       1.62074538      24.58417368        2       0.00000000       0.00198155       0.00751995       0.02257577
Pt       1.40360635       4.05186441      24.58417386        2       0.00000000      -0.00296527      -0.01104618      -0.00549813
Pt       4.21082088       4.05186391      24.58417389        2       0.00000000       0.00554822      -0.00538637       0.02290249
Pt       7.01803505       4.05186405      24.58417404        2       0.00000000      -0.00753046      -0.00181552       0.02282147
Pt       2.80721273       6.48298348      24.58417381        2       0.00000000       0.01097087       0.00299705      -0.00566151
Pt       5.61442805       6.48298330      24.58417394        2       0.00000000      -0.00583755      -0.00657969       0.03391334
Pt       8.42164222       6.48298341      24.58417373        2       0.00000000      -0.00802518       0.00799760      -0.00571449
Pt      -0.00244647      -0.00039079      26.92347574        1       0.00000000       0.00703762       0.00368367      -0.00025772
Pt       2.80876098      -0.00192364      26.92348389        1       0.00000000      -0.00672252       0.00421325      -0.00028929
Pt       5.61502959      -0.00991120      26.91070133        1       0.00000000      -0.00191703       0.01095441       0.00790360
Pt       1.40449869       2.43342462      26.92348818        1       0.00000000      -0.00031853      -0.00795623      -0.00023070
Pt       4.16935019       2.40632145      26.91120975        1       0.00000000      -0.00902367      -0.00387830       0.00276348
Pt       7.06027262       2.40762180      26.91118617        1       0.00000000       0.00797015      -0.00579226       0.00263810
Pt       2.79831281       4.86665792      26.91072329        1       0.00000000       0.01046947      -0.00378249       0.00786906
Pt       5.61368606       4.91050449      26.91135355        1       0.00000000       0.00105132       0.00955878       0.00339405
Pt       8.42992107       4.86773394      26.91073063        1       0.00000000      -0.00853201      -0.00714809       0.00786312
O        5.61437117       3.24189072      29.27315593        0       0.50000000      -0.00031685       0.00232632       0.01773312
H        5.61447213       3.24117770      28.27876656        0       0.50000000       0.00025789      -0.00192784      -0.01204933
