38
Lattice="8.421641763931781 0.0 0.0 4.2108208819658905 7.293355709136913 0.0 0.0 0.0 46.87624170604845" Properties=species:S:1:pos:R:3:tags:I:1:initial_magmoms:R:1:forces:R:3 charge=0 spin=0 energy=-194.69036432797276 free_energy=-194.69036432797276 stress="0.009590822272002697 -1.7398823493053328e-09 2.256164748359879e-07 -1.7398823493053328e-09 0.009590966627001762 -7.448008182420196e-11 2.256164748359879e-07 -7.448008182420196e-11 -0.00015935598639771342" pbc="T T T"
Pt      -0.00000001       0.00000015      19.95723445        4       0.00000000       0.00566639       0.00377160      -0.00139917
Pt       2.80721394      -0.00000009      19.95723448        4       0.00000000      -0.00607962       0.00305244      -0.00136673
Pt       5.61442781      -0.00000017      19.95723450        4       0.00000000       0.00081250      -0.00214593       0.01306455
Pt       1.40360720       2.43111836      19.95723436        4       0.00000000       0.00040722      -0.00681775      -0.00135598
Pt       4.21082078       2.43111836      19.95723446        4       0.00000000      -0.00402835      -0.00417895       0.01199394
Pt       7.01803484       2.43111844      19.95723431        4       0.00000000       0.00563280      -0.00139818       0.01200372
Pt       2.80721414       4.86223727      19.95723413        4       0.00000000      -0.00230194       0.00037247       0.01310247
Pt       5.61442797       4.86223736      19.95723433        4       0.00000000      -0.00160302       0.00557648       0.01203073
Pt       8.42164142       4.86223724      19.95723439        4       0.00000000       0.00149229       0.00176724       0.01311716
Pt       1.40360727       0.81037261      22.29206790        3       0.00000000      -0.00000265       0.00000382       0.07112388
Pt       4.21082126       0.81037249      22.29206793        3       0.00000000       0.00865105      -0.00414042      -0.04159678
Pt       7.01803475       0.81037258      22.29206787        3       0.00000000      -0.00919294      -0.00510999      -0.04369296
Pt       2.80721449       3.24149123      22.29206778        3       0.00000000       0.00016538       0.01052616      -0.04360542
Pt       5.61442761       3.24149123      22.29206789        3       0.00000000       0.00000572      -0.00000971      -0.02845550
Pt       8.42164155       3.24149130      22.29206812        3       0.00000000      -0.00076931       0.00949058      -0.04156766
Pt       4.21082090       5.67260997      22.29206743        3       0.00000000      -0.00787669      -0.00533873      -0.04146302
Pt       7.01803489       5.67261038      22.29206778        3       0.00000000       0.00901376      -0.00541612      -0.04359398
Pt       9.82524818       5.67261058      22.29206804        3       0.00000000       0.00000710       0.00000257      -0.04669988
Pt      -0.00000057       1.62074568      24.58417368        2       0.00000000      -0.00490774       0.00901734       0.02099830
Pt       2.80721445       1.62074549      24.58417387        2       0.00000000       0.01016225      -0.00009818       0.02117118
Pt       5.61442780       1.62074538      24.58417368        2       0.00000000       0.00290637       0.00692775       0.02090713
Pt       1.40360635       4.05186441      24.58417386        2       0.00000000      -0.00144413      -0.00850544      -0.00936993
Pt       4.21082088       4.05186391      24.58417389        2       0.00000000       0.00433006      -0.00602602       0.02105312
Pt       7.01803505       4.05186405      24.58417404        2       0.00000000      -0.00728618      -0.00083699       0.02094289
Pt       2.80721273       6.48298348      24.58417381        2       0.00000000       0.00792302       0.00295600      -0.00970552
Pt       5.61442805       6.48298330      24.58417394        2       0.00000000      -0.00519465      -0.00875934       0.02078628
Pt       8.42164222       6.48298341      24.58417373        2       0.00000000      -0.00644404       0.00532104      -0.00976995
Pt      -0.00136502      -0.00023377      26.92094540        1       0.00000000      -0.00471432       0.00297181       0.01373179
Pt       2.80807693      -0.00111649      26.92093732        1       0.00000000      -0.00003392      -0.00512095       0.01376934
Pt       5.61365241      -0.01023736      26.91064048        1       0.00000000       0.00578436       0.01324351       0.00771902
Pt       1.40410327       2.43238446      26.92105102        1       0.00000000       0.00481682       0.00270940       0.01321061
Pt       4.16912447       2.40555505      26.91039729        1       0.00000000      -0.00344246       0.00527123       0.00913812
Pt       7.06106394       2.40783908      26.91036914        1       0.00000000      -0.00301205      -0.00594410       0.00897141
Pt       2.79869534       4.86803418      26.91068919        1       0.00000000       0.00861129      -0.01177037       0.00758830
Pt       5.61311505       4.91112044      26.91034863        1       0.00000000       0.00639470       0.00024771       0.00927271
Pt       8.43091366       4.86668992      26.91069211        1       0.00000000      -0.01435812      -0.00158195       0.00759733
O        5.61434814       3.24148902      29.27383847        0       0.50000000      -0.00043185      -0.00007580      -0.02019273
H        5.61449097       3.24150554      28.27853398        0       0.50000000       0.00034114       0.00004558       0.02054087
