38
Lattice="8.421641763931781 0.0 0.0 4.2108208819658905 7.293355709136913 0.0 0.0 0.0 46.87624170604845" Properties=species:S:1:pos:R:3:tags:I:1:initial_magmoms:R:1:forces:R:3 charge=0 spin=0 energy=-194.69038530880772 free_energy=-194.69038530880772 stress="0.009644661098718643 -1.0826578744627113e-07 -9.139272449942837e-09 -1.0826578744627113e-07 0.009645532816648483 -1.2940803344463347e-06 -9.139272449942837e-09 -1.2940803344463347e-06 -7.97307220636867e-05" pbc="T T T"
Pt      -0.00000001       0.00000015      19.95723445        4       0.00000000       0.00570687       0.00376991      -0.00135530
Pt       2.80721394      -0.00000009      19.95723448        4       0.00000000      -0.00609455       0.00308533      -0.00133511
Pt       5.61442781      -0.00000017      19.95723450        4       0.00000000       0.00071227      -0.00190141       0.01313196
Pt       1.40360720       2.43111836      19.95723436        4       0.00000000       0.00038810      -0.00683199      -0.00137252
Pt       4.21082078       2.43111836      19.95723446        4       0.00000000      -0.00398111      -0.00421060       0.01210291
Pt       7.01803484       2.43111844      19.95723431        4       0.00000000       0.00563414      -0.00134724       0.01211197
Pt       2.80721414       4.86223727      19.95723413        4       0.00000000      -0.00204810       0.00033431       0.01316190
Pt       5.61442797       4.86223736      19.95723433        4       0.00000000      -0.00165145       0.00555145       0.01214076
Pt       8.42164142       4.86223724      19.95723439        4       0.00000000       0.00132993       0.00156093       0.01317299
Pt       1.40360727       0.81037261      22.29206790        3       0.00000000      -0.00000193       0.00001115       0.06970423
Pt       4.21082126       0.81037249      22.29206793        3       0.00000000       0.00860032      -0.00464033      -0.04106557
Pt       7.01803475       0.81037258      22.29206787        3       0.00000000      -0.00907544      -0.00541954      -0.04380700
Pt       2.80721449       3.24149123      22.29206778        3       0.00000000      -0.00018572       0.01058041      -0.04381220
Pt       5.61442761       3.24149123      22.29206789        3       0.00000000      -0.00000122      -0.00000349      -0.02668130
Pt       8.42164155       3.24149130      22.29206812        3       0.00000000      -0.00029440       0.00970033      -0.04112676
Pt       4.21082090       5.67260997      22.29206743        3       0.00000000      -0.00829043      -0.00506459      -0.04095661
Pt       7.01803489       5.67261038      22.29206778        3       0.00000000       0.00922277      -0.00516337      -0.04371354
Pt       9.82524818       5.67261058      22.29206804        3       0.00000000       0.00001358      -0.00001885      -0.04967584
Pt      -0.00000057       1.62074568      24.58417368        2       0.00000000      -0.00681488       0.01044252       0.03759304
Pt       2.80721445       1.62074549      24.58417387        2       0.00000000       0.01241231       0.00047948       0.03754289
Pt       5.61442780       1.62074538      24.58417368        2       0.00000000       0.00203271       0.01167835       0.03176656
Pt       1.40360635       4.05186441      24.58417386        2       0.00000000      -0.00233675      -0.01428509       0.00006413
Pt       4.21082088       4.05186391      24.58417389        2       0.00000000       0.00918621      -0.00747327       0.03206547
Pt       7.01803505       4.05186405      24.58417404        2       0.00000000      -0.01116768      -0.00388789       0.03201098
Pt       2.80721273       6.48298348      24.58417381        2       0.00000000       0.01347364       0.00522719      -0.00014915
Pt       5.61442805       6.48298330      24.58417394        2       0.00000000      -0.00561514      -0.01151746       0.03823870
Pt       8.42164222       6.48298341      24.58417373        2       0.00000000      -0.01114602       0.00912103      -0.00022303
Pt       0.00034810       0.00106793      26.92458456        1       0.00000000      -0.01549408      -0.00759659      -0.00372675
Pt       2.80608623      -0.00027468      26.92458798        1       0.00000000       0.01461528      -0.00903869      -0.00368580
Pt       5.61447981      -0.00946706      26.91019693        1       0.00000000       0.00090483       0.00850101       0.00723647
Pt       1.40438464       2.43024628      26.92454934        1       0.00000000       0.00077754       0.01743261      -0.00355415
Pt       4.16930360       2.40637101      26.91413828        1       0.00000000      -0.00477514      -0.00101925      -0.01111725
Pt       7.06024166       2.40759862      26.91414337        1       0.00000000       0.00340180      -0.00369388      -0.01116087
Pt       2.79899233       4.86693949      26.91019873        1       0.00000000       0.00671212      -0.00508907       0.00727532
Pt       5.61374604       4.91058099      26.91431991        1       0.00000000       0.00145537       0.00390677      -0.01032663
Pt       8.42980603       4.86707308      26.91021114        1       0.00000000      -0.00759780      -0.00369254       0.00725072
O        5.61442397       3.24187850      29.27796310        0       0.50000000       0.00001109       0.00236845       0.00567607
H        5.61441519       3.24112646      28.28332263        0       0.50000000      -0.00001909      -0.00185623      -0.00340173
