38
Lattice="8.421641763931781 0.0 0.0 4.2108208819658905 7.293355709136913 0.0 0.0 0.0 46.87624170604845" Properties=species:S:1:pos:R:3:tags:I:1:initial_magmoms:R:1:forces:R:3 charge=0 spin=0 energy=-194.6904482513126 free_energy=-194.6904482513126 stress="0.009615839459002018 -3.292151973255386e-08 1.308808066369238e-07 -3.292151973255386e-08 0.009616692550480366 -1.2144379297751584e-06 1.308808066369238e-07 -1.2144379297751584e-06 -0.00013166834833100438" pbc="T T T"
Pt      -0.00000001       0.00000015      19.95723445        4       0.00000000       0.00570047       0.00374731      -0.00135992
Pt       2.80721394      -0.00000009      19.95723448        4       0.00000000      -0.00607352       0.00309744      -0.00133112
Pt       5.61442781      -0.00000017      19.95723450        4       0.00000000       0.00073332      -0.00220104       0.01308461
Pt       1.40360720       2.43111836      19.95723436        4       0.00000000       0.00036801      -0.00681471      -0.00137146
Pt       4.21082078       2.43111836      19.95723446        4       0.00000000      -0.00395749      -0.00426718       0.01198688
Pt       7.01803484       2.43111844      19.95723431        4       0.00000000       0.00567379      -0.00129353       0.01199568
Pt       2.80721414       4.86223727      19.95723413        4       0.00000000      -0.00231682       0.00046279       0.01311585
Pt       5.61442797       4.86223736      19.95723433        4       0.00000000      -0.00171429       0.00555924       0.01202556
Pt       8.42164142       4.86223724      19.95723439        4       0.00000000       0.00158016       0.00172527       0.01312798
Pt       1.40360727       0.81037261      22.29206790        3       0.00000000      -0.00000422       0.00001211       0.07144147
Pt       4.21082126       0.81037249      22.29206793        3       0.00000000       0.00870894      -0.00435214      -0.04126628
Pt       7.01803475       0.81037258      22.29206787        3       0.00000000      -0.00923049      -0.00515244      -0.04432469
Pt       2.80721449       3.24149123      22.29206778        3       0.00000000       0.00012512       0.01057546      -0.04427677
Pt       5.61442761       3.24149123      22.29206789        3       0.00000000       0.00000177      -0.00000331      -0.02813492
Pt       8.42164155       3.24149130      22.29206812        3       0.00000000      -0.00059924       0.00964604      -0.04128311
Pt       4.21082090       5.67260997      22.29206743        3       0.00000000      -0.00809225      -0.00528985      -0.04114329
Pt       7.01803489       5.67261038      22.29206778        3       0.00000000       0.00906826      -0.00542122      -0.04421478
Pt       9.82524818       5.67261058      22.29206804        3       0.00000000       0.00001391      -0.00001026      -0.04711888
Pt      -0.00000057       1.62074568      24.58417368        2       0.00000000      -0.00232510       0.00818780       0.03313773
Pt       2.80721445       1.62074549      24.58417387        2       0.00000000       0.00822893      -0.00214191       0.03323281
Pt       5.61442780       1.62074538      24.58417368        2       0.00000000       0.00198468       0.00751873       0.02257801
Pt       1.40360635       4.05186441      24.58417386        2       0.00000000      -0.00296518      -0.01104853      -0.00550036
Pt       4.21082088       4.05186391      24.58417389        2       0.00000000       0.00554752      -0.00538577       0.02289922
Pt       7.01803505       4.05186405      24.58417404        2       0.00000000      -0.00752957      -0.00181724       0.02282036
Pt       2.80721273       6.48298348      24.58417381        2       0.00000000       0.01097140       0.00299636      -0.00566195
Pt       5.61442805       6.48298330      24.58417394        2       0.00000000      -0.00583726      -0.00657902       0.03391633
Pt       8.42164222       6.48298341      24.58417373        2       0.00000000      -0.00802431       0.00799550      -0.00571164
Pt      -0.00244630      -0.00039133      26.92347572        1       0.00000000       0.00703862       0.00368809      -0.00026149
Pt       2.80876107      -0.00192373      26.92348393        1       0.00000000      -0.00672345       0.00420999      -0.00028796
Pt       5.61502960      -0.00991113      26.91070145        1       0.00000000      -0.00192085       0.01095181       0.00790664
Pt       1.40449862       2.43342485      26.92348807        1       0.00000000      -0.00032102      -0.00795998      -0.00023166
Pt       4.16935018       2.40632157      26.91120791        1       0.00000000      -0.00901940      -0.00388918       0.00275472
Pt       7.06027147       2.40762326      26.91118740        1       0.00000000       0.00796887      -0.00580338       0.00264208
Pt       2.79831314       4.86665786      26.91072273        1       0.00000000       0.01047542      -0.00378150       0.00786650
Pt       5.61368604       4.91050287      26.91135459        1       0.00000000       0.00105664       0.00956943       0.00339753
Pt       8.42992111       4.86773456      26.91073051        1       0.00000000      -0.00853649      -0.00714010       0.00786442
O        5.61437944       3.24189599      29.27315813        0       0.50000000      -0.00026300       0.00229811       0.01766272
H        5.61446531       3.24117303      28.27876939        0       0.50000000       0.00020794      -0.00188919      -0.01197685
