38
Lattice="8.421641763931781 0.0 0.0 4.2108208819658905 7.293355709136913 0.0 0.0 0.0 46.87624170604845" Properties=species:S:1:pos:R:3:tags:I:1:initial_magmoms:R:1:forces:R:3 charge=0 spin=0 energy=-194.6903662353214 free_energy=-194.6903662353214 stress="0.00959086511284113 2.365871665244157e-10 2.3751235289637407e-07 2.365871665244157e-10 0.009590999223291874 7.998568030131992e-09 2.3751235289637407e-07 7.998568030131992e-09 -0.00015931771486066282" pbc="T T T"
Pt      -0.00000001       0.00000015      19.95723445        4       0.00000000       0.00566606       0.00377147      -0.00139894
Pt       2.80721394      -0.00000009      19.95723448        4       0.00000000      -0.00607929       0.00305225      -0.00136645
Pt       5.61442781      -0.00000017      19.95723450        4       0.00000000       0.00081241      -0.00214608       0.01306426
Pt       1.40360720       2.43111836      19.95723436        4       0.00000000       0.00040720      -0.00681741      -0.00135583
Pt       4.21082078       2.43111836      19.95723446        4       0.00000000      -0.00402834      -0.00417873       0.01199386
Pt       7.01803484       2.43111844      19.95723431        4       0.00000000       0.00563262      -0.00139806       0.01200340
Pt       2.80721414       4.86223727      19.95723413        4       0.00000000      -0.00230180       0.00037272       0.01310236
Pt       5.61442797       4.86223736      19.95723433        4       0.00000000      -0.00160313       0.00557630       0.01203061
Pt       8.42164142       4.86223724      19.95723439        4       0.00000000       0.00149222       0.00176710       0.01311712
Pt       1.40360727       0.81037261      22.29206790        3       0.00000000      -0.00000284       0.00000405       0.07111852
Pt       4.21082126       0.81037249      22.29206793        3       0.00000000       0.00865089      -0.00414018      -0.04159614
Pt       7.01803475       0.81037258      22.29206787        3       0.00000000      -0.00919308      -0.00510950      -0.04369239
Pt       2.80721449       3.24149123      22.29206778        3       0.00000000       0.00016548       0.01052574      -0.04360367
Pt       5.61442761       3.24149123      22.29206789        3       0.00000000       0.00000546      -0.00000989      -0.02845736
Pt       8.42164155       3.24149130      22.29206812        3       0.00000000      -0.00076912       0.00948982      -0.04156680
Pt       4.21082090       5.67260997      22.29206743        3       0.00000000      -0.00787685      -0.00533876      -0.04146145
Pt       7.01803489       5.67261038      22.29206778        3       0.00000000       0.00901324      -0.00541584      -0.04359300
Pt       9.82524818       5.67261058      22.29206804        3       0.00000000       0.00000728       0.00000262      -0.04669911
Pt      -0.00000057       1.62074568      24.58417368        2       0.00000000      -0.00490055       0.00901625       0.02098592
Pt       2.80721445       1.62074549      24.58417387        2       0.00000000       0.01015947      -0.00009823       0.02116570
Pt       5.61442780       1.62074538      24.58417368        2       0.00000000       0.00290336       0.00692726       0.02090400
Pt       1.40360635       4.05186441      24.58417386        2       0.00000000      -0.00144596      -0.00850376      -0.00936323
Pt       4.21082088       4.05186391      24.58417389        2       0.00000000       0.00432574      -0.00602662       0.02105494
Pt       7.01803505       4.05186405      24.58417404        2       0.00000000      -0.00728374      -0.00083305       0.02094123
Pt       2.80721273       6.48298348      24.58417381        2       0.00000000       0.00792055       0.00294992      -0.00970207
Pt       5.61442805       6.48298330      24.58417394        2       0.00000000      -0.00518920      -0.00875392       0.02077542
Pt       8.42164222       6.48298341      24.58417373        2       0.00000000      -0.00644412       0.00531926      -0.00976466
Pt      -0.00136481      -0.00023361      26.92094495        1       0.00000000      -0.00471369       0.00296697       0.01374074
Pt       2.80807676      -0.00111627      26.92093668        1       0.00000000      -0.00002818      -0.00512347       0.01376690
Pt       5.61365276      -0.01023682      26.91064058        1       0.00000000       0.00578262       0.01323999       0.00772296
Pt       1.40410270       2.43238443      26.92105132        1       0.00000000       0.00481661       0.00271114       0.01320327
Pt       4.16912675       2.40555605      26.91039624        1       0.00000000      -0.00342652       0.00528654       0.00915750
Pt       7.06106202       2.40783988      26.91036777        1       0.00000000      -0.00302776      -0.00594151       0.00899075
Pt       2.79869578       4.86803416      26.91069012        1       0.00000000       0.00861047      -0.01176485       0.00757954
Pt       5.61311476       4.91111812      26.91034790        1       0.00000000       0.00638944       0.00023054       0.00929997
Pt       8.43091351       4.86668970      26.91069330        1       0.00000000      -0.01435856      -0.00158351       0.00758649
O        5.61434879       3.24149014      29.27386736        0       0.50000000      -0.00047078      -0.00009117      -0.02030563
H        5.61449036       3.24150474      28.27855981        0       0.50000000       0.00038237       0.00006448       0.02062115
