38
Lattice="8.421641763931781 0.0 0.0 4.2108208819658905 7.293355709136913 0.0 0.0 0.0 46.87624170604845" Properties=species:S:1:pos:R:3:tags:I:1:initial_magmoms:R:1:forces:R:3 charge=0 spin=0 energy=-194.69044443661534 free_energy=-194.69044443661534 stress="0.009615820832550526 -1.5196812697126916e-08 1.8777161869820702e-07 -1.5196812697126916e-08 0.009616654366254807 -1.1884362720593344e-06 1.8777161869820702e-07 -1.1884362720593344e-06 -0.000131689797854051" pbc="T T T"
Pt      -0.00000001       0.00000015      19.95723445        4       0.00000000       0.00570023       0.00374705      -0.00136160
Pt       2.80721394      -0.00000009      19.95723448        4       0.00000000      -0.00607425       0.00309771      -0.00133079
Pt       5.61442781      -0.00000017      19.95723450        4       0.00000000       0.00073382      -0.00220119       0.01308461
Pt       1.40360720       2.43111836      19.95723436        4       0.00000000       0.00036795      -0.00681540      -0.00137118
Pt       4.21082078       2.43111836      19.95723446        4       0.00000000      -0.00395749      -0.00426723       0.01198693
Pt       7.01803484       2.43111844      19.95723431        4       0.00000000       0.00567420      -0.00129367       0.01199583
Pt       2.80721414       4.86223727      19.95723413        4       0.00000000      -0.00231691       0.00046282       0.01311568
Pt       5.61442797       4.86223736      19.95723433        4       0.00000000      -0.00171429       0.00555949       0.01202554
Pt       8.42164142       4.86223724      19.95723439        4       0.00000000       0.00158028       0.00172520       0.01312829
Pt       1.40360727       0.81037261      22.29206790        3       0.00000000      -0.00000444       0.00001187       0.07144766
Pt       4.21082126       0.81037249      22.29206793        3       0.00000000       0.00870953      -0.00435180      -0.04126653
Pt       7.01803475       0.81037258      22.29206787        3       0.00000000      -0.00923022      -0.00515310      -0.04432418
Pt       2.80721449       3.24149123      22.29206778        3       0.00000000       0.00012612       0.01057577      -0.04427629
Pt       5.61442761       3.24149123      22.29206789        3       0.00000000       0.00000183      -0.00000317      -0.02813424
Pt       8.42164155       3.24149130      22.29206812        3       0.00000000      -0.00059990       0.00964648      -0.04128408
Pt       4.21082090       5.67260997      22.29206743        3       0.00000000      -0.00809231      -0.00529055      -0.04114411
Pt       7.01803489       5.67261038      22.29206778        3       0.00000000       0.00906868      -0.00542238      -0.04421704
Pt       9.82524818       5.67261058      22.29206804        3       0.00000000       0.00001330      -0.00001025      -0.04712009
Pt      -0.00000057       1.62074568      24.58417368        2       0.00000000      -0.00231585       0.00818539       0.03312705
Pt       2.80721445       1.62074549      24.58417387        2       0.00000000       0.00824434      -0.00213484       0.03325578
Pt       5.61442780       1.62074538      24.58417368        2       0.00000000       0.00197431       0.00751912       0.02257470
Pt       1.40360635       4.05186441      24.58417386        2       0.00000000      -0.00296392      -0.01104774      -0.00549703
Pt       4.21082088       4.05186391      24.58417389        2       0.00000000       0.00554190      -0.00539255       0.02289959
Pt       7.01803505       4.05186405      24.58417404        2       0.00000000      -0.00752822      -0.00181619       0.02281426
Pt       2.80721273       6.48298348      24.58417381        2       0.00000000       0.01097103       0.00299968      -0.00565999
Pt       5.61442805       6.48298330      24.58417394        2       0.00000000      -0.00583832      -0.00657261       0.03390841
Pt       8.42164222       6.48298341      24.58417373        2       0.00000000      -0.00802630       0.00799390      -0.00571444
Pt      -0.00244620      -0.00039099      26.92347691        1       0.00000000       0.00703734       0.00368502      -0.00026255
Pt       2.80876110      -0.00192329      26.92348471        1       0.00000000      -0.00672246       0.00420705      -0.00028647
Pt       5.61502965      -0.00991141      26.91070166        1       0.00000000      -0.00191616       0.01094863       0.00790536
Pt       1.40449801       2.43342391      26.92348867        1       0.00000000      -0.00031154      -0.00794853      -0.00023166
Pt       4.16934941       2.40632063      26.91121053        1       0.00000000      -0.00901510      -0.00387429       0.00278089
Pt       7.06027441       2.40762021      26.91118469        1       0.00000000       0.00797043      -0.00580058       0.00263432
Pt       2.79831307       4.86665907      26.91072348        1       0.00000000       0.01046392      -0.00379296       0.00786554
Pt       5.61368526       4.91050734      26.91135106        1       0.00000000       0.00104789       0.00956581       0.00339198
Pt       8.42992150       4.86773455      26.91073084        1       0.00000000      -0.00852975      -0.00713909       0.00786234
O        5.61436505       3.24188596      29.27313854        0       0.50000000      -0.00038449       0.00225435       0.01773642
H        5.61447697       3.24118157      28.27874904        0       0.50000000       0.00031455      -0.00185724      -0.01205896
