38
Lattice="8.421641763931781 0.0 0.0 4.2108208819658905 7.293355709136913 0.0 0.0 0.0 46.87624170604845" Properties=species:S:1:pos:R:3:tags:I:1:initial_magmoms:R:1:forces:R:3 charge=0 spin=0 energy=-194.6903834014591 free_energy=-194.6903834014591 stress="0.00964468251913786 -1.1087008999766113e-07 -2.8336980761878294e-08 -1.1087008999766113e-07 0.009645549580454826 -1.2946427432325436e-06 -2.8336980761878294e-08 -1.2946427432325436e-06 -7.969319267431274e-05" pbc="T T T"
Pt      -0.00000001       0.00000015      19.95723445        4       0.00000000       0.00570688       0.00376994      -0.00135534
Pt       2.80721394      -0.00000009      19.95723448        4       0.00000000      -0.00609441       0.00308529      -0.00133513
Pt       5.61442781      -0.00000017      19.95723450        4       0.00000000       0.00071240      -0.00190165       0.01313192
Pt       1.40360720       2.43111836      19.95723436        4       0.00000000       0.00038802      -0.00683202      -0.00137254
Pt       4.21082078       2.43111836      19.95723446        4       0.00000000      -0.00398113      -0.00421055       0.01210283
Pt       7.01803484       2.43111844      19.95723431        4       0.00000000       0.00563433      -0.00134738       0.01211195
Pt       2.80721414       4.86223727      19.95723413        4       0.00000000      -0.00204830       0.00033418       0.01316177
Pt       5.61442797       4.86223736      19.95723433        4       0.00000000      -0.00165154       0.00555152       0.01214068
Pt       8.42164142       4.86223724      19.95723439        4       0.00000000       0.00133002       0.00156121       0.01317278
Pt       1.40360727       0.81037261      22.29206790        3       0.00000000      -0.00000241       0.00001112       0.06970502
Pt       4.21082126       0.81037249      22.29206793        3       0.00000000       0.00860023      -0.00464040      -0.04106491
Pt       7.01803475       0.81037258      22.29206787        3       0.00000000      -0.00907553      -0.00541915      -0.04380719
Pt       2.80721449       3.24149123      22.29206778        3       0.00000000      -0.00018577       0.01058079      -0.04381262
Pt       5.61442761       3.24149123      22.29206789        3       0.00000000      -0.00000083      -0.00000308      -0.02668136
Pt       8.42164155       3.24149130      22.29206812        3       0.00000000      -0.00029530       0.00970008      -0.04112565
Pt       4.21082090       5.67260997      22.29206743        3       0.00000000      -0.00829022      -0.00506456      -0.04095748
Pt       7.01803489       5.67261038      22.29206778        3       0.00000000       0.00922266      -0.00516386      -0.04371327
Pt       9.82524818       5.67261058      22.29206804        3       0.00000000       0.00001365      -0.00001894      -0.04967596
Pt      -0.00000057       1.62074568      24.58417368        2       0.00000000      -0.00681701       0.01044169       0.03759658
Pt       2.80721445       1.62074549      24.58417387        2       0.00000000       0.01241290       0.00047761       0.03755194
Pt       5.61442780       1.62074538      24.58417368        2       0.00000000       0.00203472       0.01167749       0.03176256
Pt       1.40360635       4.05186441      24.58417386        2       0.00000000      -0.00233403      -0.01428434       0.00006565
Pt       4.21082088       4.05186391      24.58417389        2       0.00000000       0.00918638      -0.00747262       0.03206172
Pt       7.01803505       4.05186405      24.58417404        2       0.00000000      -0.01116498      -0.00388864       0.03201096
Pt       2.80721273       6.48298348      24.58417381        2       0.00000000       0.01347424       0.00522811      -0.00015068
Pt       5.61442805       6.48298330      24.58417394        2       0.00000000      -0.00561732      -0.01151738       0.03824485
Pt       8.42164222       6.48298341      24.58417373        2       0.00000000      -0.01114719       0.00912212      -0.00021953
Pt       0.00034795       0.00106743      26.92458508        1       0.00000000      -0.01549146      -0.00759294      -0.00372859
Pt       2.80608666      -0.00027496      26.92458852        1       0.00000000       0.01461245      -0.00903660      -0.00369558
Pt       5.61447951      -0.00946666      26.91019682        1       0.00000000       0.00090470       0.00849521       0.00723872
Pt       1.40438477       2.43024671      26.92454947        1       0.00000000       0.00078390       0.01742803      -0.00355847
Pt       4.16930452       2.40637088      26.91413832        1       0.00000000      -0.00478794      -0.00102529      -0.01111939
Pt       7.06024117       2.40759836      26.91414302        1       0.00000000       0.00339885      -0.00367946      -0.01114272
Pt       2.79899265       4.86693932      26.91019823        1       0.00000000       0.00670276      -0.00508961       0.00727831
Pt       5.61374616       4.91058127      26.91431929        1       0.00000000       0.00146476       0.00390633      -0.01031435
Pt       8.42980554       4.86707325      26.91021146        1       0.00000000      -0.00759465      -0.00369039       0.00725221
O        5.61442374       3.24187747      29.27796245        0       0.50000000       0.00005997       0.00238162       0.00564680
H        5.61441528       3.24112744      28.28332044        0       0.50000000      -0.00006353      -0.00187355      -0.00340639
