38
Lattice="8.421641763931781 0.0 0.0 4.2108208819658905 7.293355709136913 0.0 0.0 0.0 46.87624170604845" Properties=species:S:1:pos:R:3:tags:I:1:initial_magmoms:R:1:forces:R:3 charge=0 spin=0 energy=-194.69044443661534 free_energy=-194.69044443661534 stress="0.009615827351808548 -3.101869339161567e-08 1.3047160507539957e-07 -3.101869339161567e-08 0.009616663679480553 -1.1984604952886002e-06 1.3047160507539957e-07 -1.1984604952886002e-06 -0.0001317241694778204" pbc="T T T"
Pt      -0.00000001       0.00000015      19.95723445        4       0.00000000       0.00570036       0.00374704      -0.00136041
Pt       2.80721394      -0.00000009      19.95723448        4       0.00000000      -0.00607362       0.00309741      -0.00133159
Pt       5.61442781      -0.00000017      19.95723450        4       0.00000000       0.00073351      -0.00220128       0.01308463
Pt       1.40360720       2.43111836      19.95723436        4       0.00000000       0.00036807      -0.00681488      -0.00137112
Pt       4.21082078       2.43111836      19.95723446        4       0.00000000      -0.00395762      -0.00426713       0.01198695
Pt       7.01803484       2.43111844      19.95723431        4       0.00000000       0.00567395      -0.00129367       0.01199566
Pt       2.80721414       4.86223727      19.95723413        4       0.00000000      -0.00231678       0.00046296       0.01311597
Pt       5.61442797       4.86223736      19.95723433        4       0.00000000      -0.00171444       0.00555925       0.01202560
Pt       8.42164142       4.86223724      19.95723439        4       0.00000000       0.00158033       0.00172526       0.01312817
Pt       1.40360727       0.81037261      22.29206790        3       0.00000000      -0.00000425       0.00001152       0.07144134
Pt       4.21082126       0.81037249      22.29206793        3       0.00000000       0.00870896      -0.00435283      -0.04126647
Pt       7.01803475       0.81037258      22.29206787        3       0.00000000      -0.00922996      -0.00515305      -0.04432401
Pt       2.80721449       3.24149123      22.29206778        3       0.00000000       0.00012536       0.01057540      -0.04427630
Pt       5.61442761       3.24149123      22.29206789        3       0.00000000       0.00000216      -0.00000308      -0.02813459
Pt       8.42164155       3.24149130      22.29206812        3       0.00000000      -0.00059950       0.00964672      -0.04128342
Pt       4.21082090       5.67260997      22.29206743        3       0.00000000      -0.00809262      -0.00528979      -0.04114463
Pt       7.01803489       5.67261038      22.29206778        3       0.00000000       0.00906859      -0.00542123      -0.04421533
Pt       9.82524818       5.67261058      22.29206804        3       0.00000000       0.00001362      -0.00001014      -0.04711907
Pt      -0.00000057       1.62074568      24.58417368        2       0.00000000      -0.00232653       0.00818627       0.03313294
Pt       2.80721445       1.62074549      24.58417387        2       0.00000000       0.00823207      -0.00213468       0.03323330
Pt       5.61442780       1.62074538      24.58417368        2       0.00000000       0.00198426       0.00752108       0.02258188
Pt       1.40360635       4.05186441      24.58417386        2       0.00000000      -0.00296498      -0.01104725      -0.00549740
Pt       4.21082088       4.05186391      24.58417389        2       0.00000000       0.00554727      -0.00538972       0.02290248
Pt       7.01803505       4.05186405      24.58417404        2       0.00000000      -0.00752840      -0.00182002       0.02282299
Pt       2.80721273       6.48298348      24.58417381        2       0.00000000       0.01097190       0.00299636      -0.00566318
Pt       5.61442805       6.48298330      24.58417394        2       0.00000000      -0.00584035      -0.00657622       0.03390143
Pt       8.42164222       6.48298341      24.58417373        2       0.00000000      -0.00802181       0.00799604      -0.00571603
Pt      -0.00244532      -0.00039086      26.92347570        1       0.00000000       0.00702943       0.00368363      -0.00025681
Pt       2.80876025      -0.00192308      26.92348381        1       0.00000000      -0.00671799       0.00420627      -0.00027517
Pt       5.61502938      -0.00991151      26.91070200        1       0.00000000      -0.00191932       0.01096007       0.00790174
Pt       1.40449864       2.43342347      26.92348807        1       0.00000000      -0.00031921      -0.00794444      -0.00022863
Pt       4.16934981       2.40632116      26.91120825        1       0.00000000      -0.00901985      -0.00388471       0.00274418
Pt       7.06027199       2.40762253      26.91118855        1       0.00000000       0.00796344      -0.00579492       0.00264314
Pt       2.79831317       4.86665820      26.91072290        1       0.00000000       0.01047239      -0.00378671       0.00786641
Pt       5.61368590       4.91050494      26.91135275        1       0.00000000       0.00105981       0.00956515       0.00338328
Pt       8.42992110       4.86773448      26.91073098        1       0.00000000      -0.00853455      -0.00715106       0.00786009
O        5.61437808       3.24188842      29.27315480        0       0.50000000      -0.00025615       0.00228046       0.01775788
H        5.61446656       3.24117911      28.27876624        0       0.50000000       0.00020242      -0.00188418      -0.01204615
