38
Lattice="8.421641763931781 0.0 0.0 4.2108208819658905 7.293355709136913 0.0 0.0 0.0 46.87624170604845" Properties=species:S:1:pos:R:3:tags:I:1:initial_magmoms:R:1:forces:R:3 charge=0 spin=0 energy=-194.69044634396397 free_energy=-194.69044634396397 stress="0.009615830145776272 -3.093032319156919e-08 1.2861966069976916e-07 -3.093032319156919e-08 0.009616676717996597 -1.2030080824843026e-06 1.2861966069976916e-07 -1.2030080824843026e-06 -0.00013173138722777367" pbc="T T T"
Pt      -0.00000001       0.00000015      19.95723445        4       0.00000000       0.00570053       0.00374711      -0.00136009
Pt       2.80721394      -0.00000009      19.95723448        4       0.00000000      -0.00607367       0.00309738      -0.00133134
Pt       5.61442781      -0.00000017      19.95723450        4       0.00000000       0.00073361      -0.00220098       0.01308474
Pt       1.40360720       2.43111836      19.95723436        4       0.00000000       0.00036792      -0.00681488      -0.00137139
Pt       4.21082078       2.43111836      19.95723446        4       0.00000000      -0.00395732      -0.00426718       0.01198678
Pt       7.01803484       2.43111844      19.95723431        4       0.00000000       0.00567393      -0.00129357       0.01199587
Pt       2.80721414       4.86223727      19.95723413        4       0.00000000      -0.00231668       0.00046299       0.01311576
Pt       5.61442797       4.86223736      19.95723433        4       0.00000000      -0.00171441       0.00555933       0.01202556
Pt       8.42164142       4.86223724      19.95723439        4       0.00000000       0.00158025       0.00172524       0.01312821
Pt       1.40360727       0.81037261      22.29206790        3       0.00000000      -0.00000439       0.00001197       0.07144278
Pt       4.21082126       0.81037249      22.29206793        3       0.00000000       0.00870912      -0.00435240      -0.04126606
Pt       7.01803475       0.81037258      22.29206787        3       0.00000000      -0.00923076      -0.00515250      -0.04432370
Pt       2.80721449       3.24149123      22.29206778        3       0.00000000       0.00012526       0.01057556      -0.04427783
Pt       5.61442761       3.24149123      22.29206789        3       0.00000000       0.00000212      -0.00000326      -0.02813410
Pt       8.42164155       3.24149130      22.29206812        3       0.00000000      -0.00059992       0.00964626      -0.04128373
Pt       4.21082090       5.67260997      22.29206743        3       0.00000000      -0.00809251      -0.00529007      -0.04114353
Pt       7.01803489       5.67261038      22.29206778        3       0.00000000       0.00906857      -0.00542157      -0.04421602
Pt       9.82524818       5.67261058      22.29206804        3       0.00000000       0.00001317      -0.00001076      -0.04711963
Pt      -0.00000057       1.62074568      24.58417368        2       0.00000000      -0.00232574       0.00818454       0.03313457
Pt       2.80721445       1.62074549      24.58417387        2       0.00000000       0.00822997      -0.00214073       0.03322988
Pt       5.61442780       1.62074538      24.58417368        2       0.00000000       0.00198510       0.00751933       0.02257891
Pt       1.40360635       4.05186441      24.58417386        2       0.00000000      -0.00296490      -0.01104494      -0.00550194
Pt       4.21082088       4.05186391      24.58417389        2       0.00000000       0.00554905      -0.00538645       0.02290142
Pt       7.01803505       4.05186405      24.58417404        2       0.00000000      -0.00753000      -0.00181886       0.02282340
Pt       2.80721273       6.48298348      24.58417381        2       0.00000000       0.01097400       0.00299676      -0.00566140
Pt       5.61442805       6.48298330      24.58417394        2       0.00000000      -0.00584056      -0.00657807       0.03391798
Pt       8.42164222       6.48298341      24.58417373        2       0.00000000      -0.00802393       0.00799660      -0.00571177
Pt      -0.00244662      -0.00039080      26.92347644        1       0.00000000       0.00704124       0.00368191      -0.00026737
Pt       2.80876076      -0.00192373      26.92348413        1       0.00000000      -0.00672274       0.00420871      -0.00028653
Pt       5.61503018      -0.00991137      26.91070165        1       0.00000000      -0.00192474       0.01095893       0.00790290
Pt       1.40449827       2.43342439      26.92348754        1       0.00000000      -0.00031907      -0.00795397      -0.00022002
Pt       4.16934934       2.40632107      26.91120792        1       0.00000000      -0.00901578      -0.00388809       0.00275277
Pt       7.06027273       2.40762221      26.91118748        1       0.00000000       0.00796356      -0.00579644       0.00264367
Pt       2.79831287       4.86665807      26.91072311        1       0.00000000       0.01047206      -0.00378415       0.00786798
Pt       5.61368628       4.91050445      26.91135376        1       0.00000000       0.00105684       0.00957349       0.00337889
Pt       8.42992092       4.86773432      26.91073105        1       0.00000000      -0.00853497      -0.00714637       0.00786223
O        5.61437960       3.24189226      29.27315190        0       0.50000000      -0.00025794       0.00228142       0.01781878
H        5.61446521       3.24117606      28.27876388        0       0.50000000       0.00020375      -0.00188231      -0.01211659
