38
Lattice="8.421641763931781 0.0 0.0 4.2108208819658905 7.293355709136913 0.0 0.0 0.0 46.87624170604845" Properties=species:S:1:pos:R:3:tags:I:1:initial_magmoms:R:1:forces:R:3 charge=0 spin=0 energy=-194.6904482513126 free_energy=-194.6904482513126 stress="0.009615819901227951 -2.9489624964185168e-08 1.4294008110482537e-07 -2.9489624964185168e-08 0.009616663679480553 -1.1991471637884388e-06 1.4294008110482537e-07 -1.1991471637884388e-06 -0.00013169112207833678" pbc="T T T"
Pt      -0.00000001       0.00000015      19.95723445        4       0.00000000       0.00570031       0.00374712      -0.00136017
Pt       2.80721394      -0.00000009      19.95723448        4       0.00000000      -0.00607357       0.00309742      -0.00133134
Pt       5.61442781      -0.00000017      19.95723450        4       0.00000000       0.00073368      -0.00220133       0.01308470
Pt       1.40360720       2.43111836      19.95723436        4       0.00000000       0.00036797      -0.00681502      -0.00137124
Pt       4.21082078       2.43111836      19.95723446        4       0.00000000      -0.00395759      -0.00426715       0.01198684
Pt       7.01803484       2.43111844      19.95723431        4       0.00000000       0.00567400      -0.00129368       0.01199590
Pt       2.80721414       4.86223727      19.95723413        4       0.00000000      -0.00231695       0.00046288       0.01311602
Pt       5.61442797       4.86223736      19.95723433        4       0.00000000      -0.00171438       0.00555923       0.01202565
Pt       8.42164142       4.86223724      19.95723439        4       0.00000000       0.00158037       0.00172518       0.01312825
Pt       1.40360727       0.81037261      22.29206790        3       0.00000000      -0.00000407       0.00001243       0.07144465
Pt       4.21082126       0.81037249      22.29206793        3       0.00000000       0.00870911      -0.00435219      -0.04126682
Pt       7.01803475       0.81037258      22.29206787        3       0.00000000      -0.00923021      -0.00515259      -0.04432326
Pt       2.80721449       3.24149123      22.29206778        3       0.00000000       0.00012566       0.01057581      -0.04427757
Pt       5.61442761       3.24149123      22.29206789        3       0.00000000       0.00000168      -0.00000297      -0.02813430
Pt       8.42164155       3.24149130      22.29206812        3       0.00000000      -0.00059941       0.00964672      -0.04128424
Pt       4.21082090       5.67260997      22.29206743        3       0.00000000      -0.00809250      -0.00529003      -0.04114318
Pt       7.01803489       5.67261038      22.29206778        3       0.00000000       0.00906865      -0.00542098      -0.04421708
Pt       9.82524818       5.67261058      22.29206804        3       0.00000000       0.00001344      -0.00000998      -0.04711878
Pt      -0.00000057       1.62074568      24.58417368        2       0.00000000      -0.00232580       0.00818798       0.03313095
Pt       2.80721445       1.62074549      24.58417387        2       0.00000000       0.00823250      -0.00214092       0.03323139
Pt       5.61442780       1.62074538      24.58417368        2       0.00000000       0.00198360       0.00751927       0.02257735
Pt       1.40360635       4.05186441      24.58417386        2       0.00000000      -0.00296517      -0.01104510      -0.00550071
Pt       4.21082088       4.05186391      24.58417389        2       0.00000000       0.00554671      -0.00538768       0.02289905
Pt       7.01803505       4.05186405      24.58417404        2       0.00000000      -0.00752947      -0.00181963       0.02282112
Pt       2.80721273       6.48298348      24.58417381        2       0.00000000       0.01097037       0.00299573      -0.00566336
Pt       5.61442805       6.48298330      24.58417394        2       0.00000000      -0.00583683      -0.00657765       0.03390932
Pt       8.42164222       6.48298341      24.58417373        2       0.00000000      -0.00802470       0.00799561      -0.00571286
Pt      -0.00244632      -0.00039088      26.92347612        1       0.00000000       0.00703731       0.00368280      -0.00025471
Pt       2.80876036      -0.00192367      26.92348397        1       0.00000000      -0.00671678       0.00420932      -0.00028764
Pt       5.61503008      -0.00991141      26.91070165        1       0.00000000      -0.00192442       0.01095522       0.00790326
Pt       1.40449814       2.43342403      26.92348732        1       0.00000000      -0.00031307      -0.00794906      -0.00022205
Pt       4.16934853       2.40632055      26.91120761        1       0.00000000      -0.00901360      -0.00387990       0.00276318
Pt       7.06027339       2.40762112      26.91118733        1       0.00000000       0.00796453      -0.00579565       0.00263795
Pt       2.79831336       4.86665860      26.91072334        1       0.00000000       0.01046496      -0.00378806       0.00786679
Pt       5.61368589       4.91050587      26.91135291        1       0.00000000       0.00105207       0.00956106       0.00339183
Pt       8.42992123       4.86773423      26.91073119        1       0.00000000      -0.00853241      -0.00714561       0.00786088
O        5.61437881       3.24189195      29.27315000        0       0.50000000      -0.00029608       0.00227747       0.01767518
H        5.61446607       3.24117692      28.27875986        0       0.50000000       0.00024010      -0.00187616      -0.01198080
