38
Lattice="8.421641763931781 0.0 0.0 4.2108208819658905 7.293355709136913 0.0 0.0 0.0 46.87624170604845" Properties=species:S:1:pos:R:3:tags:I:1:initial_magmoms:R:1:forces:R:3 charge=0 spin=0 energy=-194.69038721615635 free_energy=-194.69038721615635 stress="0.009644730016589165 -1.06789187270806e-07 -5.325390350918724e-09 -1.06789187270806e-07 0.00964558869600296 -1.3007930874664453e-06 -5.325390350918724e-09 -1.3007930874664453e-06 -7.96933236415498e-05" pbc="T T T"
Pt      -0.00000001       0.00000015      19.95723445        4       0.00000000       0.00570647       0.00376970      -0.00135498
Pt       2.80721394      -0.00000009      19.95723448        4       0.00000000      -0.00609415       0.00308519      -0.00133473
Pt       5.61442781      -0.00000017      19.95723450        4       0.00000000       0.00071216      -0.00190146       0.01313215
Pt       1.40360720       2.43111836      19.95723436        4       0.00000000       0.00038812      -0.00683172      -0.00137207
Pt       4.21082078       2.43111836      19.95723446        4       0.00000000      -0.00398074      -0.00421044       0.01210291
Pt       7.01803484       2.43111844      19.95723431        4       0.00000000       0.00563377      -0.00134718       0.01211193
Pt       2.80721414       4.86223727      19.95723413        4       0.00000000      -0.00204799       0.00033419       0.01316199
Pt       5.61442797       4.86223736      19.95723433        4       0.00000000      -0.00165150       0.00555104       0.01214070
Pt       8.42164142       4.86223724      19.95723439        4       0.00000000       0.00132992       0.00156102       0.01317314
Pt       1.40360727       0.81037261      22.29206790        3       0.00000000      -0.00000175       0.00001113       0.06969598
Pt       4.21082126       0.81037249      22.29206793        3       0.00000000       0.00859947      -0.00464033      -0.04106474
Pt       7.01803475       0.81037258      22.29206787        3       0.00000000      -0.00907488      -0.00541946      -0.04380550
Pt       2.80721449       3.24149123      22.29206778        3       0.00000000      -0.00018529       0.01058021      -0.04381041
Pt       5.61442761       3.24149123      22.29206789        3       0.00000000      -0.00000123      -0.00000286      -0.02668228
Pt       8.42164155       3.24149130      22.29206812        3       0.00000000      -0.00029439       0.00970022      -0.04112462
Pt       4.21082090       5.67260997      22.29206743        3       0.00000000      -0.00829002      -0.00506421      -0.04095661
Pt       7.01803489       5.67261038      22.29206778        3       0.00000000       0.00922251      -0.00516292      -0.04371255
Pt       9.82524818       5.67261058      22.29206804        3       0.00000000       0.00001345      -0.00001840      -0.04967452
Pt      -0.00000057       1.62074568      24.58417368        2       0.00000000      -0.00681315       0.01044142       0.03759117
Pt       2.80721445       1.62074549      24.58417387        2       0.00000000       0.01241163       0.00048003       0.03754880
Pt       5.61442780       1.62074538      24.58417368        2       0.00000000       0.00203361       0.01167736       0.03177002
Pt       1.40360635       4.05186441      24.58417386        2       0.00000000      -0.00234042      -0.01428256       0.00007093
Pt       4.21082088       4.05186391      24.58417389        2       0.00000000       0.00918582      -0.00747482       0.03206651
Pt       7.01803505       4.05186405      24.58417404        2       0.00000000      -0.01116456      -0.00388856       0.03201647
Pt       2.80721273       6.48298348      24.58417381        2       0.00000000       0.01346909       0.00522641      -0.00014640
Pt       5.61442805       6.48298330      24.58417394        2       0.00000000      -0.00561227      -0.01151523       0.03823200
Pt       8.42164222       6.48298341      24.58417373        2       0.00000000      -0.01114403       0.00912142      -0.00021732
Pt       0.00034741       0.00106753      26.92458350        1       0.00000000      -0.01549292      -0.00759244      -0.00371969
Pt       2.80608702      -0.00027536      26.92458706        1       0.00000000       0.01461359      -0.00903041      -0.00369191
Pt       5.61447950      -0.00946601      26.91019771        1       0.00000000       0.00090625       0.00849842       0.00722850
Pt       1.40438472       2.43024727      26.92454823        1       0.00000000       0.00077818       0.01742665      -0.00355851
Pt       4.16930771       2.40637321      26.91414048        1       0.00000000      -0.00478581      -0.00101490      -0.01111683
Pt       7.06023765       2.40759975      26.91414445        1       0.00000000       0.00340779      -0.00368610      -0.01116051
Pt       2.79899340       4.86693924      26.91019865        1       0.00000000       0.00670270      -0.00508495       0.00727931
Pt       5.61374601       4.91057731      26.91432058        1       0.00000000       0.00145535       0.00389536      -0.01031280
Pt       8.42980527       4.86707289      26.91021278        1       0.00000000      -0.00758988      -0.00370114       0.00724063
O        5.61442359       3.24187756      29.27799224        0       0.50000000      -0.00000011       0.00239133       0.00564358
H        5.61441554       3.24112737      28.28335205        0       0.50000000      -0.00000494      -0.00188088      -0.00338930
