38
Lattice="8.421641763931781 0.0 0.0 4.2108208819658905 7.293355709136913 0.0 0.0 0.0 46.87624170604845" Properties=species:S:1:pos:R:3:tags:I:1:initial_magmoms:R:1:forces:R:3 charge=0 spin=0 energy=-194.69036432797276 free_energy=-194.69036432797276 stress="0.009590811096131802 -7.08840972030167e-11 2.166678143566969e-07 -7.08840972030167e-11 0.009590952657163143 5.161536087427976e-09 2.166678143566969e-07 5.161536087427976e-09 -0.00015935451665427536" pbc="T T T"
Pt      -0.00000001       0.00000015      19.95723445        4       0.00000000       0.00566655       0.00377146      -0.00139904
Pt       2.80721394      -0.00000009      19.95723448        4       0.00000000      -0.00607967       0.00305255      -0.00136679
Pt       5.61442781      -0.00000017      19.95723450        4       0.00000000       0.00081242      -0.00214601       0.01306438
Pt       1.40360720       2.43111836      19.95723436        4       0.00000000       0.00040704      -0.00681764      -0.00135595
Pt       4.21082078       2.43111836      19.95723446        4       0.00000000      -0.00402843      -0.00417905       0.01199388
Pt       7.01803484       2.43111844      19.95723431        4       0.00000000       0.00563293      -0.00139812       0.01200378
Pt       2.80721414       4.86223727      19.95723413        4       0.00000000      -0.00230197       0.00037273       0.01310225
Pt       5.61442797       4.86223736      19.95723433        4       0.00000000      -0.00160307       0.00557667       0.01203082
Pt       8.42164142       4.86223724      19.95723439        4       0.00000000       0.00149246       0.00176721       0.01311703
Pt       1.40360727       0.81037261      22.29206790        3       0.00000000      -0.00000287       0.00000374       0.07112489
Pt       4.21082126       0.81037249      22.29206793        3       0.00000000       0.00865108      -0.00414039      -0.04159649
Pt       7.01803475       0.81037258      22.29206787        3       0.00000000      -0.00919292      -0.00511019      -0.04369339
Pt       2.80721449       3.24149123      22.29206778        3       0.00000000       0.00016555       0.01052609      -0.04360526
Pt       5.61442761       3.24149123      22.29206789        3       0.00000000       0.00000602      -0.00001003      -0.02845558
Pt       8.42164155       3.24149130      22.29206812        3       0.00000000      -0.00076932       0.00949013      -0.04156753
Pt       4.21082090       5.67260997      22.29206743        3       0.00000000      -0.00787684      -0.00533860      -0.04146351
Pt       7.01803489       5.67261038      22.29206778        3       0.00000000       0.00901379      -0.00541600      -0.04359386
Pt       9.82524818       5.67261058      22.29206804        3       0.00000000       0.00000718       0.00000252      -0.04670009
Pt      -0.00000057       1.62074568      24.58417368        2       0.00000000      -0.00490899       0.00902210       0.02099705
Pt       2.80721445       1.62074549      24.58417387        2       0.00000000       0.01016147      -0.00009577       0.02116840
Pt       5.61442780       1.62074538      24.58417368        2       0.00000000       0.00290580       0.00692733       0.02090656
Pt       1.40360635       4.05186441      24.58417386        2       0.00000000      -0.00144522      -0.00850497      -0.00937062
Pt       4.21082088       4.05186391      24.58417389        2       0.00000000       0.00433016      -0.00602697       0.02105260
Pt       7.01803505       4.05186405      24.58417404        2       0.00000000      -0.00728597      -0.00083731       0.02094224
Pt       2.80721273       6.48298348      24.58417381        2       0.00000000       0.00792193       0.00295305      -0.00970901
Pt       5.61442805       6.48298330      24.58417394        2       0.00000000      -0.00519272      -0.00876259       0.02078658
Pt       8.42164222       6.48298341      24.58417373        2       0.00000000      -0.00644346       0.00532116      -0.00976921
Pt      -0.00136517      -0.00023363      26.92094473        1       0.00000000      -0.00471310       0.00296591       0.01374042
Pt       2.80807683      -0.00111613      26.92093637        1       0.00000000      -0.00002963      -0.00512544       0.01376970
Pt       5.61365226      -0.01023723      26.91063982        1       0.00000000       0.00577867       0.01324439       0.00771718
Pt       1.40410375       2.43238446      26.92105115        1       0.00000000       0.00480867       0.00271173       0.01321050
Pt       4.16912420       2.40555481      26.91039696        1       0.00000000      -0.00344413       0.00526577       0.00913064
Pt       7.06106326       2.40783881      26.91037077        1       0.00000000      -0.00300746      -0.00594502       0.00897763
Pt       2.79869546       4.86803423      26.91068885        1       0.00000000       0.00861044      -0.01176774       0.00758889
Pt       5.61311465       4.91112017      26.91034926        1       0.00000000       0.00639801       0.00026236       0.00926418
Pt       8.43091406       4.86668983      26.91069292        1       0.00000000      -0.01435499      -0.00158195       0.00759690
O        5.61435135       3.24148938      29.27383255        0       0.50000000      -0.00040963      -0.00009226      -0.02024880
H        5.61448850       3.24150569      28.27852594        0       0.50000000       0.00032019       0.00005909       0.02060881
