38
Lattice="8.421641763931781 0.0 0.0 4.2108208819658905 7.293355709136913 0.0 0.0 0.0 46.87624170604845" Properties=species:S:1:pos:R:3:tags:I:1:initial_magmoms:R:1:forces:R:3 charge=0 spin=0 energy=-194.68953272396885 free_energy=-194.68953272396885 stress="0.009699002839624882 5.98993636913292e-08 -3.5946382581641956e-07 5.98993636913292e-08 0.009699148125946522 3.423839984861843e-07 -3.5946382581641956e-07 3.423839984861843e-07 -5.140267967362888e-05" pbc="T T T"
Pt      -0.00000001       0.00000015      19.95723445        4       0.00000000      -0.00033974       0.00070193       0.01483437
Pt       2.80721394      -0.00000009      19.95723448        4       0.00000000       0.00075429      -0.00002103       0.01482992
Pt       5.61442781      -0.00000017      19.95723450        4       0.00000000      -0.00071466       0.00549429      -0.00049071
Pt       1.40360720       2.43111836      19.95723436        4       0.00000000       0.00091674      -0.00339356       0.01070432
Pt       4.21082078       2.43111836      19.95723446        4       0.00000000       0.00509170      -0.00212722      -0.00047527
Pt       7.01803484       2.43111844      19.95723431        4       0.00000000      -0.00436999      -0.00336427      -0.00047120
Pt       2.80721414       4.86223727      19.95723413        4       0.00000000       0.00249024       0.00249126       0.01072009
Pt       5.61442797       4.86223736      19.95723433        4       0.00000000      -0.00041598      -0.00068042       0.01486264
Pt       8.42164142       4.86223724      19.95723439        4       0.00000000      -0.00340890       0.00089620       0.01071462
Pt       1.40360727       0.81037261      22.29206790        3       0.00000000       0.00202996       0.00091747      -0.04077049
Pt       4.21082126       0.81037249      22.29206793        3       0.00000000      -0.00362208      -0.00124322       0.00132543
Pt       7.01803475       0.81037258      22.29206787        3       0.00000000       0.00289315      -0.00251379       0.00133620
Pt       2.80721449       3.24149123      22.29206778        3       0.00000000      -0.00540420       0.00279887      -0.04679343
Pt       5.61442761       3.24149123      22.29206789        3       0.00000000       0.00074092       0.00376450       0.00132395
Pt       8.42164155       3.24149130      22.29206812        3       0.00000000       0.00514337       0.00326979      -0.04675580
Pt       4.21082090       5.67260997      22.29206743        3       0.00000000      -0.00181819       0.00128024      -0.04075371
Pt       7.01803489       5.67261038      22.29206778        3       0.00000000      -0.00021591      -0.00219236      -0.04072281
Pt       9.82524818       5.67261058      22.29206804        3       0.00000000       0.00025790      -0.00607322      -0.04675223
Pt      -0.00000057       1.62074568      24.58417368        2       0.00000000       0.00887631      -0.01313196       0.03156773
Pt       2.80721445       1.62074549      24.58417387        2       0.00000000       0.00110466      -0.01218754       0.03428467
Pt       5.61442780       1.62074538      24.58417368        2       0.00000000      -0.00000463       0.00002720      -0.01372008
Pt       1.40360635       4.05186441      24.58417386        2       0.00000000       0.00003631      -0.00003013       0.03264073
Pt       4.21082088       4.05186391      24.58417389        2       0.00000000       0.00698931       0.01421543       0.03158937
Pt       7.01803505       4.05186405      24.58417404        2       0.00000000      -0.01136925       0.00495677       0.03416180
Pt       2.80721273       6.48298348      24.58417381        2       0.00000000       0.01016140       0.00713774       0.03430256
Pt       5.61442805       6.48298330      24.58417394        2       0.00000000       0.00000471      -0.00001347       0.04934243
Pt       8.42164222       6.48298341      24.58417373        2       0.00000000      -0.01583355      -0.00094762       0.03138494
Pt       0.00400963      -0.00124753      26.92577456        1       0.00000000      -0.01897779       0.01237825      -0.02761742
Pt       2.80412691      -0.00284465      26.92577512        1       0.00000000       0.02019641       0.01026118      -0.02761623
Pt       5.61521300       0.01094563      26.91484623        1       0.00000000      -0.00136549      -0.00835742      -0.00207822
Pt       1.40351704       2.39109248      26.91117647        1       0.00000000      -0.00025977      -0.02037868      -0.00995313
Pt       4.21991312       2.42496939      26.91485523        1       0.00000000      -0.00654799       0.00536668      -0.00204274
Pt       7.00816611       2.42632163      26.91485782        1       0.00000000       0.00792471       0.00298988      -0.00203812
Pt       2.84192239       4.88217564      26.91116428        1       0.00000000       0.01779186       0.00994739      -0.01003744
Pt       5.61350148       4.86633140      26.92577796        1       0.00000000      -0.00124255      -0.02260760      -0.02761771
Pt       8.38699951       4.88233843      26.91111274        1       0.00000000      -0.01764561       0.01046647      -0.01033447
O        9.82538671       4.05176811      29.28749493        0       0.50000000       0.00079644      -0.00056364       0.04494958
H        9.82513896       4.05193815      28.29388522        0       0.50000000      -0.00064411       0.00046561      -0.00783408
