38
Lattice="8.421641763931781 0.0 0.0 4.2108208819658905 7.293355709136913 0.0 0.0 0.0 46.87624170604845" Properties=species:S:1:pos:R:3:tags:I:1:initial_magmoms:R:1:forces:R:3 charge=0 spin=0 energy=-194.6902861266788 free_energy=-194.6902861266788 stress="0.009694722481071949 -5.358745625017036e-08 1.0508624193050764e-08 -5.358745625017036e-08 0.009694601409137249 3.5363798556176107e-09 1.0508624193050764e-08 3.5363798556176107e-09 -8.10890196589753e-05" pbc="T T T"
Pt      -0.00000001       0.00000015      19.95723445        4       0.00000000      -0.00033854       0.00059829       0.01470547
Pt       2.80721394      -0.00000009      19.95723448        4       0.00000000       0.00066563       0.00003035       0.01470023
Pt       5.61442781      -0.00000017      19.95723450        4       0.00000000      -0.00067365       0.00548820      -0.00029451
Pt       1.40360720       2.43111836      19.95723436        4       0.00000000       0.00086107      -0.00285205       0.01083930
Pt       4.21082078       2.43111836      19.95723446        4       0.00000000       0.00505856      -0.00215579      -0.00031086
Pt       7.01803484       2.43111844      19.95723431        4       0.00000000      -0.00438466      -0.00332053      -0.00028759
Pt       2.80721414       4.86223727      19.95723413        4       0.00000000       0.00205021       0.00216799       0.01085190
Pt       5.61442797       4.86223736      19.95723433        4       0.00000000      -0.00032819      -0.00062972       0.01473032
Pt       8.42164142       4.86223724      19.95723439        4       0.00000000      -0.00291150       0.00067559       0.01085031
Pt       1.40360727       0.81037261      22.29206790        3       0.00000000       0.00201050       0.00043261      -0.04138424
Pt       4.21082126       0.81037249      22.29206793        3       0.00000000      -0.00351831      -0.00092759      -0.00070318
Pt       7.01803475       0.81037258      22.29206787        3       0.00000000       0.00256948      -0.00257087      -0.00070766
Pt       2.80721449       3.24149123      22.29206778        3       0.00000000      -0.00471526       0.00249493      -0.04389876
Pt       5.61442761       3.24149123      22.29206789        3       0.00000000       0.00094673       0.00351536      -0.00069946
Pt       8.42164155       3.24149130      22.29206812        3       0.00000000       0.00453771       0.00282924      -0.04384417
Pt       4.21082090       5.67260997      22.29206743        3       0.00000000      -0.00139269       0.00151238      -0.04136397
Pt       7.01803489       5.67261038      22.29206778        3       0.00000000      -0.00063057      -0.00193751      -0.04131963
Pt       9.82524818       5.67261058      22.29206804        3       0.00000000       0.00017997      -0.00533079      -0.04383417
Pt      -0.00000057       1.62074568      24.58417368        2       0.00000000       0.01019804      -0.00489809       0.01906917
Pt       2.80721445       1.62074549      24.58417387        2       0.00000000      -0.00062378      -0.00413050       0.02233363
Pt       5.61442780       1.62074538      24.58417368        2       0.00000000       0.00000393       0.00002355      -0.01023621
Pt       1.40360635       4.05186441      24.58417386        2       0.00000000       0.00000923       0.00000791       0.04168888
Pt       4.21082088       4.05186391      24.58417389        2       0.00000000      -0.00090596       0.01131207       0.01926710
Pt       7.01803505       4.05186405      24.58417404        2       0.00000000      -0.00333660       0.00256197       0.02250789
Pt       2.80721273       6.48298348      24.58417381        2       0.00000000       0.00405523       0.00154797       0.02241516
Pt       5.61442805       6.48298330      24.58417394        2       0.00000000      -0.00000596       0.00000749       0.03884814
Pt       8.42164222       6.48298341      24.58417373        2       0.00000000      -0.00937940      -0.00645357       0.01919728
Pt       0.00048401       0.00096639      26.92008316        1       0.00000000       0.00485530      -0.00275426      -0.00385955
Pt       2.80781136      -0.00090244      26.92008198        1       0.00000000      -0.00479282      -0.00285940      -0.00385493
Pt       5.61504771       0.00911766      26.91459382        1       0.00000000      -0.00044724       0.00090831       0.00246000
Pt       1.40346403       2.39118519      26.91254319        1       0.00000000       0.00027029      -0.00049480      -0.00394242
Pt       4.21840790       2.42602843      26.91460847        1       0.00000000       0.00099941      -0.00007236       0.00224724
Pt       7.00983311       2.42709280      26.91460898        1       0.00000000      -0.00056369      -0.00085190       0.00223842
Pt       2.84185063       4.88207424      26.91256510        1       0.00000000       0.00021409       0.00044531      -0.00375805
Pt       5.61334824       4.86216808      26.92008036        1       0.00000000      -0.00004871       0.00557949      -0.00408826
Pt       8.38714297       4.88231291      26.91256826        1       0.00000000      -0.00047538      -0.00003170      -0.00373619
O        9.82524022       4.05197864      29.30750818        0       0.50000000      -0.00004844       0.00063979       0.01962200
H        9.82525556       4.05176846      28.31416367        0       0.50000000       0.00003615      -0.00050746      -0.01644839
