38
Lattice="8.421641763931781 0.0 0.0 4.2108208819658905 7.293355709136913 0.0 0.0 0.0 46.87624170604845" Properties=species:S:1:pos:R:3:tags:I:1:initial_magmoms:R:1:forces:R:3 charge=0 spin=0 energy=-194.69025751644932 free_energy=-194.69025751644932 stress="0.00966295599937439 -8.370537152302404e-09 1.8648327682058152e-07 -8.370537152302404e-09 0.009663202799856663 4.057401099544222e-07 1.8648327682058152e-07 4.057401099544222e-07 -0.00012533756671473384" pbc="T T T"
Pt      -0.00000001       0.00000015      19.95723445        4       0.00000000      -0.00037980       0.00066604       0.01465454
Pt       2.80721394      -0.00000009      19.95723448        4       0.00000000       0.00074860       0.00002975       0.01465045
Pt       5.61442781      -0.00000017      19.95723450        4       0.00000000      -0.00072910       0.00548763      -0.00030350
Pt       1.40360720       2.43111836      19.95723436        4       0.00000000       0.00079478      -0.00292842       0.01080652
Pt       4.21082078       2.43111836      19.95723446        4       0.00000000       0.00509191      -0.00210974      -0.00030278
Pt       7.01803484       2.43111844      19.95723431        4       0.00000000      -0.00436530      -0.00337206      -0.00027186
Pt       2.80721414       4.86223727      19.95723413        4       0.00000000       0.00214912       0.00214871       0.01081674
Pt       5.61442797       4.86223736      19.95723433        4       0.00000000      -0.00036862      -0.00069864       0.01468138
Pt       8.42164142       4.86223724      19.95723439        4       0.00000000      -0.00294267       0.00077015       0.01081672
Pt       1.40360727       0.81037261      22.29206790        3       0.00000000       0.00194478       0.00034389      -0.04153647
Pt       4.21082126       0.81037249      22.29206793        3       0.00000000      -0.00354545      -0.00094502      -0.00034554
Pt       7.01803475       0.81037258      22.29206787        3       0.00000000       0.00259636      -0.00259386      -0.00035942
Pt       2.80721449       3.24149123      22.29206778        3       0.00000000      -0.00467401       0.00250437      -0.04379417
Pt       5.61442761       3.24149123      22.29206789        3       0.00000000       0.00094645       0.00354580      -0.00035357
Pt       8.42164155       3.24149130      22.29206812        3       0.00000000       0.00453387       0.00278034      -0.04373302
Pt       4.21082090       5.67260997      22.29206743        3       0.00000000      -0.00127948       0.00149344      -0.04152185
Pt       7.01803489       5.67261038      22.29206778        3       0.00000000      -0.00067148      -0.00183571      -0.04146544
Pt       9.82524818       5.67261058      22.29206804        3       0.00000000       0.00014580      -0.00530131      -0.04372651
Pt      -0.00000057       1.62074568      24.58417368        2       0.00000000       0.00893143      -0.00354141       0.01372414
Pt       2.80721445       1.62074549      24.58417387        2       0.00000000       0.00079364      -0.00242539       0.01406610
Pt       5.61442780       1.62074538      24.58417368        2       0.00000000       0.00000279       0.00001851      -0.01666092
Pt       1.40360635       4.05186441      24.58417386        2       0.00000000      -0.00000885       0.00003565       0.03613889
Pt       4.21082088       4.05186391      24.58417389        2       0.00000000      -0.00122226       0.00949514       0.01380711
Pt       7.01803505       4.05186405      24.58417404        2       0.00000000      -0.00275399       0.00047440       0.01415317
Pt       2.80721273       6.48298348      24.58417381        2       0.00000000       0.00186094       0.00205709       0.01401882
Pt       5.61442805       6.48298330      24.58417394        2       0.00000000      -0.00000745      -0.00007803       0.02356075
Pt       8.42164222       6.48298341      24.58417373        2       0.00000000      -0.00757924      -0.00595530       0.01384025
Pt       0.00109131      -0.00020840      26.91790601        1       0.00000000      -0.00114499       0.00727331       0.00821915
Pt       2.80646278      -0.00080092      26.91790756        1       0.00000000       0.00703661      -0.00289378       0.00819686
Pt       5.61537045       0.00981478      26.91385790        1       0.00000000      -0.00311148      -0.00401013       0.00609856
Pt       1.40403237       2.39105166      26.91114470        1       0.00000000      -0.00418804       0.00413986       0.00451782
Pt       4.21886370       2.42539981      26.91386537        1       0.00000000      -0.00188161       0.00469736       0.00594848
Pt       7.00905874       2.42702936      26.91386116        1       0.00000000       0.00495962      -0.00073312       0.00597867
Pt       2.84174656       4.88264110      26.91112577        1       0.00000000      -0.00151702      -0.00538204       0.00381912
Pt       5.61408194       4.86330592      26.91796951        1       0.00000000      -0.00573532      -0.00465884       0.00750912
Pt       8.38668440       4.88190116      26.91114903        1       0.00000000       0.00565749       0.00159769       0.00399134
O        9.82518245       4.05174952      29.30709312        0       0.50000000      -0.00039526      -0.00057815      -0.00615910
H        9.82531406       4.05194709      28.31311631        0       0.50000000       0.00030702       0.00048179       0.00651941
