38
Lattice="8.421641763931781 0.0 0.0 4.2108208819658905 7.293355709136913 0.0 0.0 0.0 46.87624170604845" Properties=species:S:1:pos:R:3:tags:I:1:initial_magmoms:R:1:forces:R:3 charge=0 spin=0 energy=-194.68953081662022 free_energy=-194.68953081662022 stress="0.009699009358882904 5.8876601372048754e-08 -3.603701372867363e-07 5.8876601372048754e-08 0.009699148125946522 3.519128313200781e-07 -3.603701372867363e-07 3.519128313200781e-07 -5.144677925272845e-05" pbc="T T T"
Pt      -0.00000001       0.00000015      19.95723445        4       0.00000000      -0.00033967       0.00070180       0.01483418
Pt       2.80721394      -0.00000009      19.95723448        4       0.00000000       0.00075416      -0.00002113       0.01482990
Pt       5.61442781      -0.00000017      19.95723450        4       0.00000000      -0.00071470       0.00549424      -0.00049109
Pt       1.40360720       2.43111836      19.95723436        4       0.00000000       0.00091664      -0.00339399       0.01070438
Pt       4.21082078       2.43111836      19.95723446        4       0.00000000       0.00509191      -0.00212745      -0.00047496
Pt       7.01803484       2.43111844      19.95723431        4       0.00000000      -0.00436995      -0.00336453      -0.00047108
Pt       2.80721414       4.86223727      19.95723413        4       0.00000000       0.00249059       0.00249181       0.01071997
Pt       5.61442797       4.86223736      19.95723433        4       0.00000000      -0.00041602      -0.00068032       0.01486294
Pt       8.42164142       4.86223724      19.95723439        4       0.00000000      -0.00340942       0.00089606       0.01071430
Pt       1.40360727       0.81037261      22.29206790        3       0.00000000       0.00202998       0.00091810      -0.04076976
Pt       4.21082126       0.81037249      22.29206793        3       0.00000000      -0.00362198      -0.00124336       0.00132842
Pt       7.01803475       0.81037258      22.29206787        3       0.00000000       0.00289405      -0.00251395       0.00133963
Pt       2.80721449       3.24149123      22.29206778        3       0.00000000      -0.00540541       0.00279974      -0.04679761
Pt       5.61442761       3.24149123      22.29206789        3       0.00000000       0.00074121       0.00376514       0.00132668
Pt       8.42164155       3.24149130      22.29206812        3       0.00000000       0.00514438       0.00327052      -0.04675877
Pt       4.21082090       5.67260997      22.29206743        3       0.00000000      -0.00181854       0.00128037      -0.04075382
Pt       7.01803489       5.67261038      22.29206778        3       0.00000000      -0.00021499      -0.00219253      -0.04072259
Pt       9.82524818       5.67261058      22.29206804        3       0.00000000       0.00025853      -0.00607421      -0.04675679
Pt      -0.00000057       1.62074568      24.58417368        2       0.00000000       0.00887480      -0.01314258       0.03157550
Pt       2.80721445       1.62074549      24.58417387        2       0.00000000       0.00110863      -0.01219937       0.03429284
Pt       5.61442780       1.62074538      24.58417368        2       0.00000000      -0.00000533       0.00002865      -0.01372376
Pt       1.40360635       4.05186441      24.58417386        2       0.00000000       0.00003594      -0.00003301       0.03262797
Pt       4.21082088       4.05186391      24.58417389        2       0.00000000       0.00700546       0.01421409       0.03159161
Pt       7.01803505       4.05186405      24.58417404        2       0.00000000      -0.01138612       0.00495496       0.03416079
Pt       2.80721273       6.48298348      24.58417381        2       0.00000000       0.01016747       0.00715154       0.03430735
Pt       5.61442805       6.48298330      24.58417394        2       0.00000000       0.00000457      -0.00001381       0.04936631
Pt       8.42164222       6.48298341      24.58417373        2       0.00000000      -0.01584243      -0.00093217       0.03138572
Pt       0.00401188      -0.00124877      26.92578186        1       0.00000000      -0.01899171       0.01238612      -0.02764990
Pt       2.80412465      -0.00284596      26.92578258        1       0.00000000       0.02020570       0.01027092      -0.02764888
Pt       5.61521301       0.01094702      26.91484719        1       0.00000000      -0.00136181      -0.00837401      -0.00208070
Pt       1.40351699       2.39109168      26.91117311        1       0.00000000      -0.00026348      -0.02037889      -0.00993644
Pt       4.21991400       2.42496842      26.91485506        1       0.00000000      -0.00655676       0.00537452      -0.00204520
Pt       7.00816496       2.42632103      26.91485816        1       0.00000000       0.00793450       0.00299248      -0.00203899
Pt       2.84192393       4.88217658      26.91115920        1       0.00000000       0.01778404       0.00994915      -0.01001806
Pt       5.61350136       4.86633400      26.92578530        1       0.00000000      -0.00124330      -0.02262058      -0.02764821
Pt       8.38699760       4.88233941      26.91110676        1       0.00000000      -0.01764053       0.01046775      -0.01032188
O        9.82538877       4.05176125      29.28748725        0       0.50000000       0.00079567      -0.00057431       0.04511116
H        9.82513708       4.05194366      28.29388045        0       0.50000000      -0.00063624       0.00047236      -0.00797127
