38
Lattice="8.421641763931781 0.0 0.0 4.2108208819658905 7.293355709136913 0.0 0.0 0.0 46.87624170604845" Properties=species:S:1:pos:R:3:tags:I:1:initial_magmoms:R:1:forces:R:3 charge=0 spin=0 energy=-194.69028803402745 free_energy=-194.69028803402745 stress="0.009694716893136501 -4.567467115634827e-08 -8.203291379516031e-09 -4.567467115634827e-08 0.009694620035588741 5.0957375208326994e-08 -8.203291379516031e-09 5.0957375208326994e-08 -8.11298523331061e-05" pbc="T T T"
Pt      -0.00000001       0.00000015      19.95723445        4       0.00000000      -0.00033879       0.00059845       0.01470558
Pt       2.80721394      -0.00000009      19.95723448        4       0.00000000       0.00066594       0.00003022       0.01470021
Pt       5.61442781      -0.00000017      19.95723450        4       0.00000000      -0.00067353       0.00548793      -0.00029589
Pt       1.40360720       2.43111836      19.95723436        4       0.00000000       0.00086064      -0.00285211       0.01083960
Pt       4.21082078       2.43111836      19.95723446        4       0.00000000       0.00505874      -0.00215594      -0.00030980
Pt       7.01803484       2.43111844      19.95723431        4       0.00000000      -0.00438448      -0.00332075      -0.00028747
Pt       2.80721414       4.86223727      19.95723413        4       0.00000000       0.00205034       0.00216819       0.01085177
Pt       5.61442797       4.86223736      19.95723433        4       0.00000000      -0.00032829      -0.00062955       0.01473037
Pt       8.42164142       4.86223724      19.95723439        4       0.00000000      -0.00291138       0.00067574       0.01085022
Pt       1.40360727       0.81037261      22.29206790        3       0.00000000       0.00201099       0.00043273      -0.04138264
Pt       4.21082126       0.81037249      22.29206793        3       0.00000000      -0.00351787      -0.00092797      -0.00070319
Pt       7.01803475       0.81037258      22.29206787        3       0.00000000       0.00256907      -0.00257155      -0.00070747
Pt       2.80721449       3.24149123      22.29206778        3       0.00000000      -0.00471531       0.00249495      -0.04389758
Pt       5.61442761       3.24149123      22.29206789        3       0.00000000       0.00094726       0.00351529      -0.00070032
Pt       8.42164155       3.24149130      22.29206812        3       0.00000000       0.00453781       0.00282933      -0.04384342
Pt       4.21082090       5.67260997      22.29206743        3       0.00000000      -0.00139269       0.00151249      -0.04136365
Pt       7.01803489       5.67261038      22.29206778        3       0.00000000      -0.00063049      -0.00193728      -0.04132065
Pt       9.82524818       5.67261058      22.29206804        3       0.00000000       0.00017977      -0.00533081      -0.04383537
Pt      -0.00000057       1.62074568      24.58417368        2       0.00000000       0.01020985      -0.00489209       0.01908726
Pt       2.80721445       1.62074549      24.58417387        2       0.00000000      -0.00063443      -0.00412556       0.02234926
Pt       5.61442780       1.62074538      24.58417368        2       0.00000000       0.00000314       0.00002679      -0.01024089
Pt       1.40360635       4.05186441      24.58417386        2       0.00000000       0.00000998       0.00000248       0.04169390
Pt       4.21082088       4.05186391      24.58417389        2       0.00000000      -0.00090423       0.01131077       0.01926425
Pt       7.01803505       4.05186405      24.58417404        2       0.00000000      -0.00334279       0.00255710       0.02249815
Pt       2.80721273       6.48298348      24.58417381        2       0.00000000       0.00405748       0.00154518       0.02241484
Pt       5.61442805       6.48298330      24.58417394        2       0.00000000      -0.00000579       0.00000659       0.03884684
Pt       8.42164222       6.48298341      24.58417373        2       0.00000000      -0.00938108      -0.00644937       0.01918940
Pt       0.00048446       0.00096636      26.92008316        1       0.00000000       0.00485707      -0.00275150      -0.00386042
Pt       2.80781060      -0.00090230      26.92008239        1       0.00000000      -0.00479086      -0.00285711      -0.00385525
Pt       5.61504818       0.00911759      26.91459338        1       0.00000000      -0.00045101       0.00090312       0.00246967
Pt       1.40346404       2.39118696      26.91254762        1       0.00000000       0.00026907      -0.00048850      -0.00393867
Pt       4.21840823       2.42602786      26.91460854        1       0.00000000       0.00099844      -0.00006862       0.00224641
Pt       7.00983289       2.42709226      26.91460940        1       0.00000000      -0.00055997      -0.00084614       0.00223884
Pt       2.84185058       4.88207404      26.91256554        1       0.00000000       0.00021711       0.00044585      -0.00376473
Pt       5.61334791       4.86216876      26.92008046        1       0.00000000      -0.00004934       0.00557587      -0.00408233
Pt       8.38714238       4.88231324      26.91256634        1       0.00000000      -0.00048769      -0.00002869      -0.00376557
O        9.82524746       4.05196207      29.30750745        0       0.50000000      -0.00000490       0.00054305       0.01976856
H        9.82524915       4.05178264      28.31416511        0       0.50000000       0.00000233      -0.00042868      -0.01658969
