38
Lattice="8.421641763931781 0.0 0.0 4.2108208819658905 7.293355709136913 0.0 0.0 0.0 46.87624170604845" Properties=species:S:1:pos:R:3:tags:I:1:initial_magmoms:R:1:forces:R:3 charge=0 spin=0 energy=-194.6902918487247 free_energy=-194.6902918487247 stress="0.009694702923297882 -5.918591838849352e-08 3.572052165168316e-08 -5.918591838849352e-08 0.009694602340459824 5.425372151535157e-08 3.572052165168316e-08 5.425372151535157e-08 -8.11288264230825e-05" pbc="T T T"
Pt      -0.00000001       0.00000015      19.95723445        4       0.00000000      -0.00033868       0.00059828       0.01470562
Pt       2.80721394      -0.00000009      19.95723448        4       0.00000000       0.00066586       0.00003030       0.01470015
Pt       5.61442781      -0.00000017      19.95723450        4       0.00000000      -0.00067362       0.00548782      -0.00029603
Pt       1.40360720       2.43111836      19.95723436        4       0.00000000       0.00086110      -0.00285194       0.01083949
Pt       4.21082078       2.43111836      19.95723446        4       0.00000000       0.00505841      -0.00215588      -0.00031056
Pt       7.01803484       2.43111844      19.95723431        4       0.00000000      -0.00438492      -0.00332065      -0.00028636
Pt       2.80721414       4.86223727      19.95723413        4       0.00000000       0.00205013       0.00216809       0.01085179
Pt       5.61442797       4.86223736      19.95723433        4       0.00000000      -0.00032826      -0.00062962       0.01473026
Pt       8.42164142       4.86223724      19.95723439        4       0.00000000      -0.00291128       0.00067561       0.01085037
Pt       1.40360727       0.81037261      22.29206790        3       0.00000000       0.00201079       0.00043261      -0.04138325
Pt       4.21082126       0.81037249      22.29206793        3       0.00000000      -0.00351820      -0.00092799      -0.00070172
Pt       7.01803475       0.81037258      22.29206787        3       0.00000000       0.00256930      -0.00257172      -0.00070693
Pt       2.80721449       3.24149123      22.29206778        3       0.00000000      -0.00471541       0.00249461      -0.04389825
Pt       5.61442761       3.24149123      22.29206789        3       0.00000000       0.00094639       0.00351534      -0.00069939
Pt       8.42164155       3.24149130      22.29206812        3       0.00000000       0.00453804       0.00282945      -0.04384365
Pt       4.21082090       5.67260997      22.29206743        3       0.00000000      -0.00139276       0.00151221      -0.04136498
Pt       7.01803489       5.67261038      22.29206778        3       0.00000000      -0.00063048      -0.00193743      -0.04131950
Pt       9.82524818       5.67261058      22.29206804        3       0.00000000       0.00018007      -0.00533078      -0.04383541
Pt      -0.00000057       1.62074568      24.58417368        2       0.00000000       0.01020592      -0.00489395       0.01908047
Pt       2.80721445       1.62074549      24.58417387        2       0.00000000      -0.00063339      -0.00412611       0.02234698
Pt       5.61442780       1.62074538      24.58417368        2       0.00000000       0.00000400       0.00002681      -0.01023977
Pt       1.40360635       4.05186441      24.58417386        2       0.00000000       0.00000713       0.00000246       0.04168337
Pt       4.21082088       4.05186391      24.58417389        2       0.00000000      -0.00089278       0.01130649       0.01925080
Pt       7.01803505       4.05186405      24.58417404        2       0.00000000      -0.00334254       0.00256049       0.02250398
Pt       2.80721273       6.48298348      24.58417381        2       0.00000000       0.00405662       0.00155726       0.02239806
Pt       5.61442805       6.48298330      24.58417394        2       0.00000000      -0.00000588       0.00000400       0.03885245
Pt       8.42164222       6.48298341      24.58417373        2       0.00000000      -0.00938248      -0.00645395       0.01919443
Pt       0.00048396       0.00096690      26.92008334        1       0.00000000       0.00485952      -0.00275363      -0.00385962
Pt       2.80781159      -0.00090203      26.92008235        1       0.00000000      -0.00479580      -0.00286370      -0.00385686
Pt       5.61504780       0.00911711      26.91459353        1       0.00000000      -0.00044774       0.00090972       0.00246942
Pt       1.40346383       2.39118665      26.91254660        1       0.00000000       0.00026812      -0.00048734      -0.00392410
Pt       4.21840774       2.42602840      26.91460868        1       0.00000000       0.00100258      -0.00007264       0.00224686
Pt       7.00983295       2.42709256      26.91460940        1       0.00000000      -0.00056405      -0.00085053       0.00223814
Pt       2.84185220       4.88207507      26.91256036        1       0.00000000       0.00022377       0.00045129      -0.00376960
Pt       5.61334809       4.86216787      26.92008117        1       0.00000000      -0.00004445       0.00558366      -0.00409244
Pt       8.38714311       4.88231300      26.91256795        1       0.00000000      -0.00048539      -0.00003062      -0.00373513
O        9.82523189       4.05196065      29.30750216        0       0.50000000      -0.00009678       0.00053348       0.01970096
H        9.82526249       4.05178385      28.31415861        0       0.50000000       0.00007685      -0.00042147      -0.01652018
