38
Lattice="8.421641763931781 0.0 0.0 4.2108208819658905 7.293355709136913 0.0 0.0 0.0 46.87624170604845" Properties=species:S:1:pos:R:3:tags:I:1:initial_magmoms:R:1:forces:R:3 charge=0 spin=0 energy=-194.68892046505772 free_energy=-194.68892046505772 stress="0.009775776416063309 4.1024399877187534e-08 4.0486582975063357e-08 4.1024399877187534e-08 0.009775769896805286 1.3855471081569704e-07 4.0486582975063357e-08 1.3855471081569704e-07 5.030120155424811e-05" pbc="T T T"
Pt      -0.00000001       0.00000015      19.95723445        4       0.00000000       0.00014626       0.00039574       0.01475479
Pt       2.80721394      -0.00000009      19.95723448        4       0.00000000       0.00024343      -0.00028741       0.01474712
Pt       5.61442781      -0.00000017      19.95723450        4       0.00000000      -0.00058542       0.00533930      -0.00014692
Pt       1.40360720       2.43111836      19.95723436        4       0.00000000       0.00091999      -0.00231290       0.01103455
Pt       4.21082078       2.43111836      19.95723446        4       0.00000000       0.00489333      -0.00216913      -0.00012716
Pt       7.01803484       2.43111844      19.95723431        4       0.00000000      -0.00430035      -0.00318114      -0.00010329
Pt       2.80721414       4.86223727      19.95723413        4       0.00000000       0.00154346       0.00195121       0.01103593
Pt       5.61442797       4.86223736      19.95723433        4       0.00000000      -0.00039266      -0.00009476       0.01477443
Pt       8.42164142       4.86223724      19.95723439        4       0.00000000      -0.00246711       0.00035346       0.01103286
Pt       1.40360727       0.81037261      22.29206790        3       0.00000000       0.00216297       0.00088251      -0.03909200
Pt       4.21082126       0.81037249      22.29206793        3       0.00000000      -0.00270133      -0.00022428      -0.00461820
Pt       7.01803475       0.81037258      22.29206787        3       0.00000000       0.00153392      -0.00227779      -0.00457783
Pt       2.80721449       3.24149123      22.29206778        3       0.00000000      -0.00428586       0.00231338      -0.04262149
Pt       5.61442761       3.24149123      22.29206789        3       0.00000000       0.00118618       0.00248119      -0.00466386
Pt       8.42164155       3.24149130      22.29206812        3       0.00000000       0.00414541       0.00259561      -0.04256075
Pt       4.21082090       5.67260997      22.29206743        3       0.00000000      -0.00186421       0.00138210      -0.03923513
Pt       7.01803489       5.67261038      22.29206778        3       0.00000000      -0.00029345      -0.00228593      -0.03920387
Pt       9.82524818       5.67261058      22.29206804        3       0.00000000       0.00013472      -0.00486315      -0.04267995
Pt      -0.00000057       1.62074568      24.58417368        2       0.00000000       0.02120917      -0.00303213       0.02825573
Pt       2.80721445       1.62074549      24.58417387        2       0.00000000      -0.01350690      -0.00468285       0.03163324
Pt       5.61442780       1.62074538      24.58417368        2       0.00000000       0.00005711      -0.00010317       0.00390775
Pt       1.40360635       4.05186441      24.58417386        2       0.00000000       0.00000638      -0.00030326       0.07657114
Pt       4.21082088       4.05186391      24.58417389        2       0.00000000      -0.00799420       0.01949711       0.02723061
Pt       7.01803505       4.05186405      24.58417404        2       0.00000000       0.00253900       0.01339730       0.03081200
Pt       2.80721273       6.48298348      24.58417381        2       0.00000000       0.01086969      -0.00868158       0.03137498
Pt       5.61442805       6.48298330      24.58417394        2       0.00000000      -0.00005236       0.00039539       0.06581163
Pt       8.42164222       6.48298341      24.58417373        2       0.00000000      -0.01312805      -0.01644896       0.02776747
Pt      -0.00247081       0.00439625      26.92214270        1       0.00000000       0.02896059      -0.02652727      -0.01802236
Pt       2.81228660      -0.00000515      26.92208831        1       0.00000000      -0.03769516      -0.01190278      -0.01775778
Pt       5.61641408       0.00322696      26.91290648        1       0.00000000      -0.00542013       0.03774191       0.00897218
Pt       1.40306183       2.39106544      26.92063739        1       0.00000000       0.00306823       0.01209573      -0.03255131
Pt       4.21260217       2.42777092      26.91279388        1       0.00000000       0.03539247      -0.01417017       0.00945044
Pt       7.01422200       2.43117903      26.91286125        1       0.00000000      -0.02976329      -0.02361809       0.00916891
Pt       2.84214880       4.88186131      26.92035287        1       0.00000000      -0.01204505      -0.00358020      -0.03172105
Pt       5.61190963       4.85785983      26.92178603        1       0.00000000       0.00832052       0.03865486      -0.01650135
Pt       8.38719954       4.88269985      26.92036604        1       0.00000000       0.00914904      -0.00871942      -0.03173702
O        9.82524826       4.05178000      29.32964777        0       0.50000000      -0.00003922      -0.00079405      -0.02406685
H        9.82525639       4.05195595      28.33578064        0       0.50000000       0.00005282       0.00078368       0.00365262
