38
Lattice="8.421641763931781 0.0 0.0 4.2108208819658905 7.293355709136913 0.0 0.0 0.0 46.87624170604845" Properties=species:S:1:pos:R:3:tags:I:1:initial_magmoms:R:1:forces:R:3 charge=0 spin=0 energy=-194.69025751644932 free_energy=-194.69025751644932 stress="0.009662951342761517 -7.493230924637828e-09 1.797170625650324e-07 -7.493230924637828e-09 0.009663192555308342 3.9862499079390545e-07 1.797170625650324e-07 3.9862499079390545e-07 -0.00012529571540653706" pbc="T T T"
Pt      -0.00000001       0.00000015      19.95723445        4       0.00000000      -0.00037983       0.00066590       0.01465460
Pt       2.80721394      -0.00000009      19.95723448        4       0.00000000       0.00074868       0.00002972       0.01465047
Pt       5.61442781      -0.00000017      19.95723450        4       0.00000000      -0.00072921       0.00548782      -0.00030341
Pt       1.40360720       2.43111836      19.95723436        4       0.00000000       0.00079498      -0.00292835       0.01080654
Pt       4.21082078       2.43111836      19.95723446        4       0.00000000       0.00509217      -0.00210976      -0.00030284
Pt       7.01803484       2.43111844      19.95723431        4       0.00000000      -0.00436533      -0.00337182      -0.00027199
Pt       2.80721414       4.86223727      19.95723413        4       0.00000000       0.00214906       0.00214871       0.01081691
Pt       5.61442797       4.86223736      19.95723433        4       0.00000000      -0.00036846      -0.00069858       0.01468149
Pt       8.42164142       4.86223724      19.95723439        4       0.00000000      -0.00294275       0.00077014       0.01081683
Pt       1.40360727       0.81037261      22.29206790        3       0.00000000       0.00194468       0.00034383      -0.04153688
Pt       4.21082126       0.81037249      22.29206793        3       0.00000000      -0.00354560      -0.00094550      -0.00034515
Pt       7.01803475       0.81037258      22.29206787        3       0.00000000       0.00259662      -0.00259401      -0.00036016
Pt       2.80721449       3.24149123      22.29206778        3       0.00000000      -0.00467421       0.00250451      -0.04379418
Pt       5.61442761       3.24149123      22.29206789        3       0.00000000       0.00094636       0.00354608      -0.00035320
Pt       8.42164155       3.24149130      22.29206812        3       0.00000000       0.00453385       0.00278025      -0.04373345
Pt       4.21082090       5.67260997      22.29206743        3       0.00000000      -0.00127966       0.00149360      -0.04152090
Pt       7.01803489       5.67261038      22.29206778        3       0.00000000      -0.00067139      -0.00183556      -0.04146593
Pt       9.82524818       5.67261058      22.29206804        3       0.00000000       0.00014572      -0.00530161      -0.04372640
Pt      -0.00000057       1.62074568      24.58417368        2       0.00000000       0.00892846      -0.00354282       0.01372094
Pt       2.80721445       1.62074549      24.58417387        2       0.00000000       0.00079651      -0.00242636       0.01406152
Pt       5.61442780       1.62074538      24.58417368        2       0.00000000       0.00000315       0.00001888      -0.01666264
Pt       1.40360635       4.05186441      24.58417386        2       0.00000000      -0.00000718       0.00003667       0.03613549
Pt       4.21082088       4.05186391      24.58417389        2       0.00000000      -0.00122310       0.00949521       0.01380888
Pt       7.01803505       4.05186405      24.58417404        2       0.00000000      -0.00275624       0.00047231       0.01414861
Pt       2.80721273       6.48298348      24.58417381        2       0.00000000       0.00186065       0.00205584       0.01402078
Pt       5.61442805       6.48298330      24.58417394        2       0.00000000      -0.00000747      -0.00007780       0.02356101
Pt       8.42164222       6.48298341      24.58417373        2       0.00000000      -0.00757849      -0.00595223       0.01383457
Pt       0.00109129      -0.00020854      26.91790627        1       0.00000000      -0.00114465       0.00727143       0.00821885
Pt       2.80646291      -0.00080081      26.91790731        1       0.00000000       0.00703273      -0.00289440       0.00819737
Pt       5.61537035       0.00981539      26.91385821        1       0.00000000      -0.00310950      -0.00401588       0.00609950
Pt       1.40403278       2.39105112      26.91114271        1       0.00000000      -0.00419060       0.00414522       0.00452531
Pt       4.21886385       2.42539927      26.91386590        1       0.00000000      -0.00188494       0.00470168       0.00594918
Pt       7.00905863       2.42702941      26.91386097        1       0.00000000       0.00496446      -0.00073349       0.00597944
Pt       2.84174620       4.88264107      26.91112531        1       0.00000000      -0.00152035      -0.00538349       0.00382815
Pt       5.61408241       4.86330583      26.91796953        1       0.00000000      -0.00574133      -0.00465776       0.00750929
Pt       8.38668380       4.88190114      26.91114730        1       0.00000000       0.00566867       0.00159569       0.00400446
O        9.82518437       4.05175229      29.30709601        0       0.50000000      -0.00038241      -0.00056487      -0.00631288
H        9.82531273       4.05194505      28.31311693        0       0.50000000       0.00029587       0.00047080       0.00666007
