38
Lattice="8.421641763931781 0.0 0.0 4.2108208819658905 7.293355709136913 0.0 0.0 0.0 46.87624170604845" Properties=species:S:1:pos:R:3:tags:I:1:initial_magmoms:R:1:forces:R:3 charge=0 spin=0 energy=-194.6889185577091 free_energy=-194.6889185577091 stress="0.009775792248547077 3.8800298085561735e-08 4.3255724335722334e-08 3.8800298085561735e-08 0.009775781072676182 1.3839382972946623e-07 4.3255724335722334e-08 1.3839382972946623e-07 5.030968168284744e-05" pbc="T T T"
Pt      -0.00000001       0.00000015      19.95723445        4       0.00000000       0.00014622       0.00039569       0.01475477
Pt       2.80721394      -0.00000009      19.95723448        4       0.00000000       0.00024346      -0.00028728       0.01474688
Pt       5.61442781      -0.00000017      19.95723450        4       0.00000000      -0.00058538       0.00533912      -0.00014684
Pt       1.40360720       2.43111836      19.95723436        4       0.00000000       0.00091981      -0.00231291       0.01103462
Pt       4.21082078       2.43111836      19.95723446        4       0.00000000       0.00489347      -0.00216891      -0.00012704
Pt       7.01803484       2.43111844      19.95723431        4       0.00000000      -0.00430036      -0.00318114      -0.00010297
Pt       2.80721414       4.86223727      19.95723413        4       0.00000000       0.00154349       0.00195106       0.01103600
Pt       5.61442797       4.86223736      19.95723433        4       0.00000000      -0.00039263      -0.00009488       0.01477453
Pt       8.42164142       4.86223724      19.95723439        4       0.00000000      -0.00246706       0.00035343       0.01103294
Pt       1.40360727       0.81037261      22.29206790        3       0.00000000       0.00216346       0.00088253      -0.03909315
Pt       4.21082126       0.81037249      22.29206793        3       0.00000000      -0.00270125      -0.00022429      -0.00461881
Pt       7.01803475       0.81037258      22.29206787        3       0.00000000       0.00153377      -0.00227748      -0.00457805
Pt       2.80721449       3.24149123      22.29206778        3       0.00000000      -0.00428587       0.00231336      -0.04262106
Pt       5.61442761       3.24149123      22.29206789        3       0.00000000       0.00118604       0.00248096      -0.00466393
Pt       8.42164155       3.24149130      22.29206812        3       0.00000000       0.00414537       0.00259559      -0.04256031
Pt       4.21082090       5.67260997      22.29206743        3       0.00000000      -0.00186412       0.00138218      -0.03923478
Pt       7.01803489       5.67261038      22.29206778        3       0.00000000      -0.00029380      -0.00228606      -0.03920494
Pt       9.82524818       5.67261058      22.29206804        3       0.00000000       0.00013456      -0.00486289      -0.04267961
Pt      -0.00000057       1.62074568      24.58417368        2       0.00000000       0.02120720      -0.00303140       0.02825894
Pt       2.80721445       1.62074549      24.58417387        2       0.00000000      -0.01350711      -0.00468011       0.03163084
Pt       5.61442780       1.62074538      24.58417368        2       0.00000000       0.00005899      -0.00010180       0.00391094
Pt       1.40360635       4.05186441      24.58417386        2       0.00000000       0.00000694      -0.00030282       0.07657015
Pt       4.21082088       4.05186391      24.58417389        2       0.00000000      -0.00799322       0.01949713       0.02723357
Pt       7.01803505       4.05186405      24.58417404        2       0.00000000       0.00253854       0.01339382       0.03081297
Pt       2.80721273       6.48298348      24.58417381        2       0.00000000       0.01086927      -0.00868149       0.03137455
Pt       5.61442805       6.48298330      24.58417394        2       0.00000000      -0.00005508       0.00039450       0.06580774
Pt       8.42164222       6.48298341      24.58417373        2       0.00000000      -0.01312547      -0.01645016       0.02776594
Pt      -0.00247033       0.00439613      26.92214225        1       0.00000000       0.02895918      -0.02652500      -0.01802226
Pt       2.81228610      -0.00000512      26.92208696        1       0.00000000      -0.03769233      -0.01190075      -0.01774853
Pt       5.61641412       0.00322724      26.91290666        1       0.00000000      -0.00541974       0.03773864       0.00897268
Pt       1.40306150       2.39106684      26.92063777        1       0.00000000       0.00307031       0.01209284      -0.03254853
Pt       4.21260219       2.42777069      26.91279384        1       0.00000000       0.03539364      -0.01416651       0.00944940
Pt       7.01422201       2.43117891      26.91286216        1       0.00000000      -0.02976484      -0.02361806       0.00916081
Pt       2.84214844       4.88186087      26.92035292        1       0.00000000      -0.01204542      -0.00358081      -0.03171959
Pt       5.61191060       4.85786042      26.92178528        1       0.00000000       0.00830879       0.03864773      -0.01650199
Pt       8.38719930       4.88269867      26.92036639        1       0.00000000       0.00915797      -0.00871464      -0.03172952
O        9.82524750       4.05178008      29.32965377        0       0.50000000      -0.00004410      -0.00079356      -0.02407890
H        9.82525693       4.05195570      28.33578923        0       0.50000000       0.00005704       0.00078431       0.00365283
