38
Lattice="8.421641763931781 0.0 0.0 4.2108208819658905 7.293355709136913 0.0 0.0 0.0 46.87624170604845" Properties=species:S:1:pos:R:3:tags:I:1:initial_magmoms:R:1:forces:R:3 charge=0 spin=0 energy=-194.69025179440342 free_energy=-194.69025179440342 stress="0.009662957862019539 -9.327472128006775e-09 1.8581737037948187e-07 -9.327472128006775e-09 0.009663209319114685 4.0611061535855697e-07 1.8581737037948187e-07 4.0611061535855697e-07 -0.00012532758410088718" pbc="T T T"
Pt      -0.00000001       0.00000015      19.95723445        4       0.00000000      -0.00037978       0.00066604       0.01465435
Pt       2.80721394      -0.00000009      19.95723448        4       0.00000000       0.00074858       0.00002966       0.01465051
Pt       5.61442781      -0.00000017      19.95723450        4       0.00000000      -0.00072906       0.00548780      -0.00030354
Pt       1.40360720       2.43111836      19.95723436        4       0.00000000       0.00079491      -0.00292841       0.01080667
Pt       4.21082078       2.43111836      19.95723446        4       0.00000000       0.00509199      -0.00210979      -0.00030293
Pt       7.01803484       2.43111844      19.95723431        4       0.00000000      -0.00436539      -0.00337212      -0.00027182
Pt       2.80721414       4.86223727      19.95723413        4       0.00000000       0.00214899       0.00214866       0.01081687
Pt       5.61442797       4.86223736      19.95723433        4       0.00000000      -0.00036847      -0.00069865       0.01468145
Pt       8.42164142       4.86223724      19.95723439        4       0.00000000      -0.00294272       0.00077021       0.01081689
Pt       1.40360727       0.81037261      22.29206790        3       0.00000000       0.00194464       0.00034390      -0.04153677
Pt       4.21082126       0.81037249      22.29206793        3       0.00000000      -0.00354559      -0.00094517      -0.00034561
Pt       7.01803475       0.81037258      22.29206787        3       0.00000000       0.00259634      -0.00259379      -0.00036006
Pt       2.80721449       3.24149123      22.29206778        3       0.00000000      -0.00467440       0.00250468      -0.04379379
Pt       5.61442761       3.24149123      22.29206789        3       0.00000000       0.00094654       0.00354613      -0.00035310
Pt       8.42164155       3.24149130      22.29206812        3       0.00000000       0.00453389       0.00278043      -0.04373338
Pt       4.21082090       5.67260997      22.29206743        3       0.00000000      -0.00127946       0.00149357      -0.04152126
Pt       7.01803489       5.67261038      22.29206778        3       0.00000000      -0.00067118      -0.00183553      -0.04146555
Pt       9.82524818       5.67261058      22.29206804        3       0.00000000       0.00014580      -0.00530173      -0.04372626
Pt      -0.00000057       1.62074568      24.58417368        2       0.00000000       0.00892894      -0.00354280       0.01371997
Pt       2.80721445       1.62074549      24.58417387        2       0.00000000       0.00079649      -0.00242642       0.01406315
Pt       5.61442780       1.62074538      24.58417368        2       0.00000000       0.00000215       0.00001890      -0.01666060
Pt       1.40360635       4.05186441      24.58417386        2       0.00000000      -0.00000695       0.00003669       0.03613529
Pt       4.21082088       4.05186391      24.58417389        2       0.00000000      -0.00122005       0.00949621       0.01380992
Pt       7.01803505       4.05186405      24.58417404        2       0.00000000      -0.00275826       0.00047367       0.01415278
Pt       2.80721273       6.48298348      24.58417381        2       0.00000000       0.00186073       0.00205683       0.01401791
Pt       5.61442805       6.48298330      24.58417394        2       0.00000000      -0.00000783      -0.00008080       0.02356490
Pt       8.42164222       6.48298341      24.58417373        2       0.00000000      -0.00757863      -0.00595216       0.01383781
Pt       0.00109063      -0.00020852      26.91790631        1       0.00000000      -0.00114007       0.00726964       0.00821983
Pt       2.80646271      -0.00080081      26.91790734        1       0.00000000       0.00703771      -0.00289731       0.00819529
Pt       5.61537093       0.00981512      26.91385855        1       0.00000000      -0.00311488      -0.00401456       0.00609846
Pt       1.40403255       2.39105157      26.91114235        1       0.00000000      -0.00418958       0.00414704       0.00453035
Pt       4.21886373       2.42539994      26.91386557        1       0.00000000      -0.00188168       0.00469823       0.00594880
Pt       7.00905877       2.42702914      26.91386105        1       0.00000000       0.00495888      -0.00072960       0.00598043
Pt       2.84174644       4.88264148      26.91112425        1       0.00000000      -0.00151856      -0.00538462       0.00382261
Pt       5.61408211       4.86330574      26.91796997        1       0.00000000      -0.00573873      -0.00465556       0.00749849
Pt       8.38668419       4.88190096      26.91114747        1       0.00000000       0.00566450       0.00159725       0.00400675
O        9.82518230       4.05175002      29.30709839        0       0.50000000      -0.00039688      -0.00057457      -0.00617547
H        9.82531415       4.05194670      28.31312157        0       0.50000000       0.00030725       0.00047792       0.00652042
