38
Lattice="8.421641763931781 0.0 0.0 4.2108208819658905 7.293355709136913 0.0 0.0 0.0 46.87624170604845" Properties=species:S:1:pos:R:3:tags:I:1:initial_magmoms:R:1:forces:R:3 charge=0 spin=0 energy=-194.68953081662022 free_energy=-194.68953081662022 stress="0.009698981419205666 6.254646933712138e-08 -3.784883801927208e-07 6.254646933712138e-08 0.00969911739230156 3.556174590357841e-07 -3.784883801927208e-07 3.556174590357841e-07 -5.1387101848376915e-05" pbc="T T T"
Pt      -0.00000001       0.00000015      19.95723445        4       0.00000000      -0.00033984       0.00070188       0.01483442
Pt       2.80721394      -0.00000009      19.95723448        4       0.00000000       0.00075428      -0.00002098       0.01482996
Pt       5.61442781      -0.00000017      19.95723450        4       0.00000000      -0.00071456       0.00549413      -0.00049114
Pt       1.40360720       2.43111836      19.95723436        4       0.00000000       0.00091662      -0.00339332       0.01070453
Pt       4.21082078       2.43111836      19.95723446        4       0.00000000       0.00509180      -0.00212744      -0.00047466
Pt       7.01803484       2.43111844      19.95723431        4       0.00000000      -0.00436999      -0.00336441      -0.00047144
Pt       2.80721414       4.86223727      19.95723413        4       0.00000000       0.00249013       0.00249121       0.01072014
Pt       5.61442797       4.86223736      19.95723433        4       0.00000000      -0.00041584      -0.00068042       0.01486291
Pt       8.42164142       4.86223724      19.95723439        4       0.00000000      -0.00340869       0.00089594       0.01071450
Pt       1.40360727       0.81037261      22.29206790        3       0.00000000       0.00203028       0.00091721      -0.04077131
Pt       4.21082126       0.81037249      22.29206793        3       0.00000000      -0.00362187      -0.00124314       0.00132436
Pt       7.01803475       0.81037258      22.29206787        3       0.00000000       0.00289314      -0.00251363       0.00133722
Pt       2.80721449       3.24149123      22.29206778        3       0.00000000      -0.00540398       0.00279881      -0.04679251
Pt       5.61442761       3.24149123      22.29206789        3       0.00000000       0.00074127       0.00376449       0.00132351
Pt       8.42164155       3.24149130      22.29206812        3       0.00000000       0.00514323       0.00326945      -0.04675525
Pt       4.21082090       5.67260997      22.29206743        3       0.00000000      -0.00181800       0.00128041      -0.04075445
Pt       7.01803489       5.67261038      22.29206778        3       0.00000000      -0.00021589      -0.00219209      -0.04072307
Pt       9.82524818       5.67261058      22.29206804        3       0.00000000       0.00025791      -0.00607265      -0.04675244
Pt      -0.00000057       1.62074568      24.58417368        2       0.00000000       0.00888287      -0.01312592       0.03157052
Pt       2.80721445       1.62074549      24.58417387        2       0.00000000       0.00110050      -0.01218115       0.03428340
Pt       5.61442780       1.62074538      24.58417368        2       0.00000000      -0.00000474       0.00002827      -0.01372007
Pt       1.40360635       4.05186441      24.58417386        2       0.00000000       0.00003435      -0.00003258       0.03264264
Pt       4.21082088       4.05186391      24.58417389        2       0.00000000       0.00698721       0.01421323       0.03158607
Pt       7.01803505       4.05186405      24.58417404        2       0.00000000      -0.01136829       0.00495484       0.03415300
Pt       2.80721273       6.48298348      24.58417381        2       0.00000000       0.01015937       0.00713526       0.03430185
Pt       5.61442805       6.48298330      24.58417394        2       0.00000000       0.00000301      -0.00001481       0.04933610
Pt       8.42164222       6.48298341      24.58417373        2       0.00000000      -0.01583019      -0.00094834       0.03137472
Pt       0.00400839      -0.00124676      26.92577169        1       0.00000000      -0.01897198       0.01237511      -0.02761023
Pt       2.80412807      -0.00284419      26.92577256        1       0.00000000       0.02018787       0.01025962      -0.02759874
Pt       5.61521279       0.01094510      26.91484668        1       0.00000000      -0.00136285      -0.00835615      -0.00207803
Pt       1.40351720       2.39109285      26.91117884        1       0.00000000      -0.00025989      -0.02038097      -0.00995958
Pt       4.21991285       2.42496959      26.91485517        1       0.00000000      -0.00654645       0.00536463      -0.00204469
Pt       7.00816685       2.42632189      26.91485787        1       0.00000000       0.00792185       0.00298441      -0.00203672
Pt       2.84192284       4.88217560      26.91116580        1       0.00000000       0.01778589       0.00994770      -0.01003004
Pt       5.61350154       4.86633018      26.92577540        1       0.00000000      -0.00124218      -0.02259784      -0.02760611
Pt       8.38699807       4.88233929      26.91111178        1       0.00000000      -0.01765214       0.01047373      -0.01036068
O        9.82539307       4.05176114      29.28748837        0       0.50000000       0.00083968      -0.00057928       0.04482566
H        9.82513305       4.05194382      28.29387393        0       0.50000000      -0.00067408       0.00047469      -0.00769451
