38
Lattice="8.421641763931781 0.0 0.0 4.2108208819658905 7.293355709136913 0.0 0.0 0.0 46.87624170604845" Properties=species:S:1:pos:R:3:tags:I:1:initial_magmoms:R:1:forces:R:3 charge=0 spin=0 energy=-194.6902918487247 free_energy=-194.6902918487247 stress="0.009694715961813927 -5.063563790486114e-08 3.6245892953701286e-09 -5.063563790486114e-08 0.009694610722362995 4.607166914638583e-08 3.6245892953701286e-09 4.607166914638583e-08 -8.113950752886012e-05" pbc="T T T"
Pt      -0.00000001       0.00000015      19.95723445        4       0.00000000      -0.00033874       0.00059844       0.01470571
Pt       2.80721394      -0.00000009      19.95723448        4       0.00000000       0.00066564       0.00003025       0.01470019
Pt       5.61442781      -0.00000017      19.95723450        4       0.00000000      -0.00067357       0.00548786      -0.00029563
Pt       1.40360720       2.43111836      19.95723436        4       0.00000000       0.00086096      -0.00285217       0.01083956
Pt       4.21082078       2.43111836      19.95723446        4       0.00000000       0.00505853      -0.00215597      -0.00030999
Pt       7.01803484       2.43111844      19.95723431        4       0.00000000      -0.00438469      -0.00332055      -0.00028721
Pt       2.80721414       4.86223727      19.95723413        4       0.00000000       0.00205026       0.00216815       0.01085188
Pt       5.61442797       4.86223736      19.95723433        4       0.00000000      -0.00032822      -0.00062951       0.01473028
Pt       8.42164142       4.86223724      19.95723439        4       0.00000000      -0.00291142       0.00067565       0.01085006
Pt       1.40360727       0.81037261      22.29206790        3       0.00000000       0.00201098       0.00043256      -0.04138322
Pt       4.21082126       0.81037249      22.29206793        3       0.00000000      -0.00351794      -0.00092796      -0.00070304
Pt       7.01803475       0.81037258      22.29206787        3       0.00000000       0.00256956      -0.00257153      -0.00070704
Pt       2.80721449       3.24149123      22.29206778        3       0.00000000      -0.00471523       0.00249442      -0.04389758
Pt       5.61442761       3.24149123      22.29206789        3       0.00000000       0.00094693       0.00351541      -0.00069976
Pt       8.42164155       3.24149130      22.29206812        3       0.00000000       0.00453826       0.00282914      -0.04384439
Pt       4.21082090       5.67260997      22.29206743        3       0.00000000      -0.00139254       0.00151221      -0.04136394
Pt       7.01803489       5.67261038      22.29206778        3       0.00000000      -0.00063037      -0.00193742      -0.04132000
Pt       9.82524818       5.67261058      22.29206804        3       0.00000000       0.00018019      -0.00533096      -0.04383557
Pt      -0.00000057       1.62074568      24.58417368        2       0.00000000       0.01020621      -0.00489370       0.01908179
Pt       2.80721445       1.62074549      24.58417387        2       0.00000000      -0.00063116      -0.00412704       0.02234287
Pt       5.61442780       1.62074538      24.58417368        2       0.00000000       0.00000343       0.00002685      -0.01024076
Pt       1.40360635       4.05186441      24.58417386        2       0.00000000       0.00000839       0.00000395       0.04168906
Pt       4.21082088       4.05186391      24.58417389        2       0.00000000      -0.00089922       0.01131062       0.01926141
Pt       7.01803505       4.05186405      24.58417404        2       0.00000000      -0.00334346       0.00255943       0.02250480
Pt       2.80721273       6.48298348      24.58417381        2       0.00000000       0.00405721       0.00154892       0.02240940
Pt       5.61442805       6.48298330      24.58417394        2       0.00000000      -0.00000570       0.00000399       0.03885011
Pt       8.42164222       6.48298341      24.58417373        2       0.00000000      -0.00938230      -0.00645030       0.01919078
Pt       0.00048450       0.00096633      26.92008374        1       0.00000000       0.00485717      -0.00275095      -0.00385932
Pt       2.80781061      -0.00090208      26.92008302        1       0.00000000      -0.00479006      -0.00286323      -0.00385538
Pt       5.61504794       0.00911750      26.91459357        1       0.00000000      -0.00044863       0.00090460       0.00246995
Pt       1.40346421       2.39118656      26.91254706        1       0.00000000       0.00026709      -0.00048632      -0.00393426
Pt       4.21840799       2.42602814      26.91460843        1       0.00000000       0.00099987      -0.00007078       0.00224802
Pt       7.00983305       2.42709225      26.91460960        1       0.00000000      -0.00056153      -0.00084471       0.00223844
Pt       2.84185100       4.88207408      26.91256395        1       0.00000000       0.00021448       0.00044740      -0.00375868
Pt       5.61334764       4.86216866      26.92008148        1       0.00000000      -0.00004239       0.00557693      -0.00409055
Pt       8.38714294       4.88231332      26.91256673        1       0.00000000      -0.00049064      -0.00003052      -0.00375502
O        9.82524400       4.05196395      29.30750751        0       0.50000000      -0.00002995       0.00055559       0.01976576
H        9.82525215       4.05178093      28.31416478        0       0.50000000       0.00002283      -0.00043898      -0.01658850
