38
Lattice="8.421641763931781 0.0 0.0 4.2108208819658905 7.293355709136913 0.0 0.0 0.0 46.87624170604845" Properties=species:S:1:pos:R:3:tags:I:1:initial_magmoms:R:1:forces:R:3 charge=0 spin=0 energy=-194.69028994137608 free_energy=-194.69028994137608 stress="0.009694729000329971 -4.479506898746877e-08 -6.697834731284047e-09 -4.479506898746877e-08 0.009694620035588741 3.295673067782445e-08 -6.697834731284047e-09 3.295673067782445e-08 -8.109170448733494e-05" pbc="T T T"
Pt      -0.00000001       0.00000015      19.95723445        4       0.00000000      -0.00033878       0.00059848       0.01470558
Pt       2.80721394      -0.00000009      19.95723448        4       0.00000000       0.00066583       0.00003018       0.01470019
Pt       5.61442781      -0.00000017      19.95723450        4       0.00000000      -0.00067371       0.00548789      -0.00029519
Pt       1.40360720       2.43111836      19.95723436        4       0.00000000       0.00086088      -0.00285220       0.01083960
Pt       4.21082078       2.43111836      19.95723446        4       0.00000000       0.00505861      -0.00215594      -0.00030994
Pt       7.01803484       2.43111844      19.95723431        4       0.00000000      -0.00438466      -0.00332056      -0.00028757
Pt       2.80721414       4.86223727      19.95723413        4       0.00000000       0.00205041       0.00216804       0.01085190
Pt       5.61442797       4.86223736      19.95723433        4       0.00000000      -0.00032819      -0.00062948       0.01473020
Pt       8.42164142       4.86223724      19.95723439        4       0.00000000      -0.00291166       0.00067567       0.01085020
Pt       1.40360727       0.81037261      22.29206790        3       0.00000000       0.00201080       0.00043289      -0.04138287
Pt       4.21082126       0.81037249      22.29206793        3       0.00000000      -0.00351791      -0.00092782      -0.00070312
Pt       7.01803475       0.81037258      22.29206787        3       0.00000000       0.00256975      -0.00257116      -0.00070682
Pt       2.80721449       3.24149123      22.29206778        3       0.00000000      -0.00471551       0.00249486      -0.04389837
Pt       5.61442761       3.24149123      22.29206789        3       0.00000000       0.00094708       0.00351542      -0.00069979
Pt       8.42164155       3.24149130      22.29206812        3       0.00000000       0.00453784       0.00282953      -0.04384453
Pt       4.21082090       5.67260997      22.29206743        3       0.00000000      -0.00139267       0.00151234      -0.04136369
Pt       7.01803489       5.67261038      22.29206778        3       0.00000000      -0.00063028      -0.00193748      -0.04132048
Pt       9.82524818       5.67261058      22.29206804        3       0.00000000       0.00018033      -0.00533084      -0.04383544
Pt      -0.00000057       1.62074568      24.58417368        2       0.00000000       0.01020542      -0.00489471       0.01908180
Pt       2.80721445       1.62074549      24.58417387        2       0.00000000      -0.00062956      -0.00413032       0.02234585
Pt       5.61442780       1.62074538      24.58417368        2       0.00000000       0.00000283       0.00002403      -0.01023686
Pt       1.40360635       4.05186441      24.58417386        2       0.00000000       0.00000952       0.00000394       0.04169139
Pt       4.21082088       4.05186391      24.58417389        2       0.00000000      -0.00090318       0.01131211       0.01926824
Pt       7.01803505       4.05186405      24.58417404        2       0.00000000      -0.00334336       0.00255941       0.02250533
Pt       2.80721273       6.48298348      24.58417381        2       0.00000000       0.00405544       0.00154664       0.02241812
Pt       5.61442805       6.48298330      24.58417394        2       0.00000000      -0.00000332       0.00000546       0.03884824
Pt       8.42164222       6.48298341      24.58417373        2       0.00000000      -0.00938178      -0.00644675       0.01919711
Pt       0.00048530       0.00096565      26.92008456        1       0.00000000       0.00484891      -0.00274502      -0.00385815
Pt       2.80780976      -0.00090284      26.92008358        1       0.00000000      -0.00477972      -0.00285617      -0.00386290
Pt       5.61504820       0.00911796      26.91459380        1       0.00000000      -0.00045257       0.00090380       0.00245854
Pt       1.40346414       2.39118630      26.91254560        1       0.00000000       0.00026874      -0.00049159      -0.00394494
Pt       4.21840824       2.42602808      26.91460878        1       0.00000000       0.00099958      -0.00007203       0.00224645
Pt       7.00983271       2.42709221      26.91460969        1       0.00000000      -0.00056160      -0.00084586       0.00223725
Pt       2.84185044       4.88207388      26.91256527        1       0.00000000       0.00021158       0.00044492      -0.00375451
Pt       5.61334765       4.86216957      26.92008160        1       0.00000000      -0.00004191       0.00556823      -0.00409140
Pt       8.38714281       4.88231330      26.91256699        1       0.00000000      -0.00049077      -0.00002783      -0.00375926
O        9.82524852       4.05196861      29.30750574        0       0.50000000      -0.00000329       0.00058176       0.01970037
H        9.82524853       4.05177695      28.31416380        0       0.50000000       0.00000063      -0.00045986      -0.01652061
