38
Lattice="8.421641763931781 0.0 0.0 4.2108208819658905 7.293355709136913 0.0 0.0 0.0 46.87624170604845" Properties=species:S:1:pos:R:3:tags:I:1:initial_magmoms:R:1:forces:R:3 charge=0 spin=0 energy=-194.69025751644932 free_energy=-194.69025751644932 stress="0.009662965312600136 -4.408392317856169e-09 1.8656855615972745e-07 -4.408392317856169e-09 0.009663216769695282 4.074859418778942e-07 1.8656855615972745e-07 4.074859418778942e-07 -0.000125322156236507" pbc="T T T"
Pt      -0.00000001       0.00000015      19.95723445        4       0.00000000      -0.00037997       0.00066611       0.01465450
Pt       2.80721394      -0.00000009      19.95723448        4       0.00000000       0.00074863       0.00002972       0.01465034
Pt       5.61442781      -0.00000017      19.95723450        4       0.00000000      -0.00072916       0.00548774      -0.00030354
Pt       1.40360720       2.43111836      19.95723436        4       0.00000000       0.00079483      -0.00292847       0.01080663
Pt       4.21082078       2.43111836      19.95723446        4       0.00000000       0.00509187      -0.00210984      -0.00030267
Pt       7.01803484       2.43111844      19.95723431        4       0.00000000      -0.00436527      -0.00337209      -0.00027171
Pt       2.80721414       4.86223727      19.95723413        4       0.00000000       0.00214906       0.00214867       0.01081679
Pt       5.61442797       4.86223736      19.95723433        4       0.00000000      -0.00036859      -0.00069863       0.01468149
Pt       8.42164142       4.86223724      19.95723439        4       0.00000000      -0.00294259       0.00077022       0.01081672
Pt       1.40360727       0.81037261      22.29206790        3       0.00000000       0.00194472       0.00034399      -0.04153599
Pt       4.21082126       0.81037249      22.29206793        3       0.00000000      -0.00354514      -0.00094512      -0.00034631
Pt       7.01803475       0.81037258      22.29206787        3       0.00000000       0.00259603      -0.00259401      -0.00036011
Pt       2.80721449       3.24149123      22.29206778        3       0.00000000      -0.00467390       0.00250454      -0.04379359
Pt       5.61442761       3.24149123      22.29206789        3       0.00000000       0.00094655       0.00354561      -0.00035412
Pt       8.42164155       3.24149130      22.29206812        3       0.00000000       0.00453380       0.00278026      -0.04373284
Pt       4.21082090       5.67260997      22.29206743        3       0.00000000      -0.00127914       0.00149358      -0.04152096
Pt       7.01803489       5.67261038      22.29206778        3       0.00000000      -0.00067124      -0.00183581      -0.04146560
Pt       9.82524818       5.67261058      22.29206804        3       0.00000000       0.00014593      -0.00530129      -0.04372632
Pt      -0.00000057       1.62074568      24.58417368        2       0.00000000       0.00893387      -0.00353993       0.01372928
Pt       2.80721445       1.62074549      24.58417387        2       0.00000000       0.00078891      -0.00242506       0.01406631
Pt       5.61442780       1.62074538      24.58417368        2       0.00000000       0.00000498       0.00001748      -0.01666379
Pt       1.40360635       4.05186441      24.58417386        2       0.00000000      -0.00000693       0.00003461       0.03614255
Pt       4.21082088       4.05186391      24.58417389        2       0.00000000      -0.00122432       0.00949858       0.01380711
Pt       7.01803505       4.05186405      24.58417404        2       0.00000000      -0.00275372       0.00047478       0.01415441
Pt       2.80721273       6.48298348      24.58417381        2       0.00000000       0.00186130       0.00205470       0.01402095
Pt       5.61442805       6.48298330      24.58417394        2       0.00000000      -0.00000795      -0.00007800       0.02356174
Pt       8.42164222       6.48298341      24.58417373        2       0.00000000      -0.00757961      -0.00595530       0.01383990
Pt       0.00109099      -0.00020861      26.91790537        1       0.00000000      -0.00114113       0.00727415       0.00821919
Pt       2.80646266      -0.00080061      26.91790721        1       0.00000000       0.00703576      -0.00290038       0.00819826
Pt       5.61537048       0.00981488      26.91385777        1       0.00000000      -0.00311039      -0.00401295       0.00609890
Pt       1.40403271       2.39105195      26.91114596        1       0.00000000      -0.00419240       0.00413947       0.00451123
Pt       4.21886326       2.42539986      26.91386503        1       0.00000000      -0.00188204       0.00469889       0.00595885
Pt       7.00905884       2.42702935      26.91386114        1       0.00000000       0.00496273      -0.00073216       0.00597592
Pt       2.84174638       4.88264098      26.91112721        1       0.00000000      -0.00151611      -0.00537937       0.00380953
Pt       5.61408179       4.86330596      26.91796890        1       0.00000000      -0.00573356      -0.00465672       0.00750774
Pt       8.38668502       4.88190084      26.91115036        1       0.00000000       0.00565330       0.00159960       0.00399312
O        9.82518198       4.05174902      29.30709622        0       0.50000000      -0.00039727      -0.00058293      -0.00616377
H        9.82531445       4.05194742      28.31312002        0       0.50000000       0.00030824       0.00048513       0.00651957
