38
Lattice="8.421641763931781 0.0 0.0 4.2108208819658905 7.293355709136913 0.0 0.0 0.0 46.87624170604845" Properties=species:S:1:pos:R:3:tags:I:1:initial_magmoms:R:1:forces:R:3 charge=0 spin=0 energy=-194.68953081662022 free_energy=-194.68953081662022 stress="0.009698973037302494 6.045078038141583e-08 -3.680461020394432e-07 6.045078038141583e-08 0.009699120186269283 3.549877760633535e-07 -3.680461020394432e-07 3.549877760633535e-07 -5.144522219779901e-05" pbc="T T T"
Pt      -0.00000001       0.00000015      19.95723445        4       0.00000000      -0.00033986       0.00070178       0.01483418
Pt       2.80721394      -0.00000009      19.95723448        4       0.00000000       0.00075407      -0.00002124       0.01483003
Pt       5.61442781      -0.00000017      19.95723450        4       0.00000000      -0.00071439       0.00549420      -0.00049107
Pt       1.40360720       2.43111836      19.95723436        4       0.00000000       0.00091657      -0.00339334       0.01070455
Pt       4.21082078       2.43111836      19.95723446        4       0.00000000       0.00509197      -0.00212729      -0.00047477
Pt       7.01803484       2.43111844      19.95723431        4       0.00000000      -0.00436993      -0.00336440      -0.00047105
Pt       2.80721414       4.86223727      19.95723413        4       0.00000000       0.00249014       0.00249136       0.01072018
Pt       5.61442797       4.86223736      19.95723433        4       0.00000000      -0.00041584      -0.00068006       0.01486291
Pt       8.42164142       4.86223724      19.95723439        4       0.00000000      -0.00340875       0.00089602       0.01071450
Pt       1.40360727       0.81037261      22.29206790        3       0.00000000       0.00203036       0.00091747      -0.04077080
Pt       4.21082126       0.81037249      22.29206793        3       0.00000000      -0.00362180      -0.00124333       0.00132546
Pt       7.01803475       0.81037258      22.29206787        3       0.00000000       0.00289322      -0.00251406       0.00133728
Pt       2.80721449       3.24149123      22.29206778        3       0.00000000      -0.00540422       0.00279901      -0.04679401
Pt       5.61442761       3.24149123      22.29206789        3       0.00000000       0.00074122       0.00376443       0.00132391
Pt       8.42164155       3.24149130      22.29206812        3       0.00000000       0.00514345       0.00326968      -0.04675626
Pt       4.21082090       5.67260997      22.29206743        3       0.00000000      -0.00181811       0.00128030      -0.04075507
Pt       7.01803489       5.67261038      22.29206778        3       0.00000000      -0.00021570      -0.00219224      -0.04072259
Pt       9.82524818       5.67261058      22.29206804        3       0.00000000       0.00025788      -0.00607347      -0.04675300
Pt      -0.00000057       1.62074568      24.58417368        2       0.00000000       0.00887965      -0.01313011       0.03156662
Pt       2.80721445       1.62074549      24.58417387        2       0.00000000       0.00110153      -0.01218810       0.03428106
Pt       5.61442780       1.62074538      24.58417368        2       0.00000000      -0.00000332       0.00002671      -0.01372217
Pt       1.40360635       4.05186441      24.58417386        2       0.00000000       0.00003579      -0.00003204       0.03264218
Pt       4.21082088       4.05186391      24.58417389        2       0.00000000       0.00699070       0.01421602       0.03157900
Pt       7.01803505       4.05186405      24.58417404        2       0.00000000      -0.01137287       0.00495391       0.03415214
Pt       2.80721273       6.48298348      24.58417381        2       0.00000000       0.01016052       0.00713953       0.03429790
Pt       5.61442805       6.48298330      24.58417394        2       0.00000000       0.00000496      -0.00001406       0.04934778
Pt       8.42164222       6.48298341      24.58417373        2       0.00000000      -0.01583390      -0.00094308       0.03137552
Pt       0.00400805      -0.00124645      26.92577430        1       0.00000000      -0.01896653       0.01237066      -0.02761737
Pt       2.80412833      -0.00284388      26.92577519        1       0.00000000       0.02018249       0.01025830      -0.02761627
Pt       5.61521291       0.01094479      26.91484655        1       0.00000000      -0.00136533      -0.00835908      -0.00207752
Pt       1.40351701       2.39109157      26.91117649        1       0.00000000      -0.00026291      -0.02036960      -0.00994906
Pt       4.21991231       2.42496990      26.91485469        1       0.00000000      -0.00654620       0.00536305      -0.00203335
Pt       7.00816675       2.42632192      26.91485797        1       0.00000000       0.00792437       0.00298806      -0.00203710
Pt       2.84192402       4.88217629      26.91116345        1       0.00000000       0.01777840       0.00994323      -0.01002930
Pt       5.61350127       4.86632980      26.92577757        1       0.00000000      -0.00123858      -0.02259152      -0.02761498
Pt       8.38699756       4.88233945      26.91110991        1       0.00000000      -0.01763970       0.01046528      -0.01034266
O        9.82539086       4.05176206      29.28749362        0       0.50000000       0.00081312      -0.00058475       0.04496459
H        9.82513561       4.05194314      28.29388277        0       0.50000000      -0.00065249       0.00048260      -0.00783140
