38
Lattice="8.421641763931781 0.0 0.0 4.2108208819658905 7.293355709136913 0.0 0.0 0.0 46.87624170604845" Properties=species:S:1:pos:R:3:tags:I:1:initial_magmoms:R:1:forces:R:3 charge=0 spin=0 energy=-194.6895289092716 free_energy=-194.6895289092716 stress="0.009699004702270031 5.139925463026884e-08 -3.40020193334567e-07 5.139925463026884e-08 0.009699154645204544 3.4313703167754284e-07 -3.40020193334567e-07 3.4313703167754284e-07 -5.133065133122727e-05" pbc="T T T"
Pt      -0.00000001       0.00000015      19.95723445        4       0.00000000      -0.00033956       0.00070179       0.01483406
Pt       2.80721394      -0.00000009      19.95723448        4       0.00000000       0.00075409      -0.00002131       0.01482992
Pt       5.61442781      -0.00000017      19.95723450        4       0.00000000      -0.00071473       0.00549456      -0.00049080
Pt       1.40360720       2.43111836      19.95723436        4       0.00000000       0.00091694      -0.00339404       0.01070436
Pt       4.21082078       2.43111836      19.95723446        4       0.00000000       0.00509168      -0.00212734      -0.00047561
Pt       7.01803484       2.43111844      19.95723431        4       0.00000000      -0.00437012      -0.00336457      -0.00047108
Pt       2.80721414       4.86223727      19.95723413        4       0.00000000       0.00249077       0.00249167       0.01071994
Pt       5.61442797       4.86223736      19.95723433        4       0.00000000      -0.00041604      -0.00068029       0.01486281
Pt       8.42164142       4.86223724      19.95723439        4       0.00000000      -0.00340958       0.00089612       0.01071430
Pt       1.40360727       0.81037261      22.29206790        3       0.00000000       0.00203000       0.00091818      -0.04076968
Pt       4.21082126       0.81037249      22.29206793        3       0.00000000      -0.00362236      -0.00124334       0.00132893
Pt       7.01803475       0.81037258      22.29206787        3       0.00000000       0.00289400      -0.00251381       0.00133952
Pt       2.80721449       3.24149123      22.29206778        3       0.00000000      -0.00540534       0.00279961      -0.04679814
Pt       5.61442761       3.24149123      22.29206789        3       0.00000000       0.00074075       0.00376550       0.00132789
Pt       8.42164155       3.24149130      22.29206812        3       0.00000000       0.00514469       0.00327074      -0.04675940
Pt       4.21082090       5.67260997      22.29206743        3       0.00000000      -0.00181852       0.00128006      -0.04075393
Pt       7.01803489       5.67261038      22.29206778        3       0.00000000      -0.00021502      -0.00219295      -0.04072101
Pt       9.82524818       5.67261058      22.29206804        3       0.00000000       0.00025828      -0.00607493      -0.04675720
Pt      -0.00000057       1.62074568      24.58417368        2       0.00000000       0.00886915      -0.01314796       0.03157321
Pt       2.80721445       1.62074549      24.58417387        2       0.00000000       0.00111170      -0.01220147       0.03428760
Pt       5.61442780       1.62074538      24.58417368        2       0.00000000      -0.00000550       0.00002670      -0.01372596
Pt       1.40360635       4.05186441      24.58417386        2       0.00000000       0.00003462      -0.00003087       0.03262791
Pt       4.21082088       4.05186391      24.58417389        2       0.00000000       0.00700655       0.01421360       0.03158816
Pt       7.01803505       4.05186405      24.58417404        2       0.00000000      -0.01138230       0.00495805       0.03416857
Pt       2.80721273       6.48298348      24.58417381        2       0.00000000       0.01017022       0.00715665       0.03430389
Pt       5.61442805       6.48298330      24.58417394        2       0.00000000       0.00000216      -0.00001286       0.04936566
Pt       8.42164222       6.48298341      24.58417373        2       0.00000000      -0.01584155      -0.00093589       0.03139456
Pt       0.00401228      -0.00124920      26.92578227        1       0.00000000      -0.01899594       0.01238713      -0.02765883
Pt       2.80412431      -0.00284633      26.92578238        1       0.00000000       0.02021237       0.01027174      -0.02764744
Pt       5.61521310       0.01094761      26.91484660        1       0.00000000      -0.00136364      -0.00837647      -0.00208116
Pt       1.40351694       2.39108975      26.91117172        1       0.00000000      -0.00026525      -0.02036253      -0.00992987
Pt       4.21991448       2.42496846      26.91485538        1       0.00000000      -0.00655691       0.00537206      -0.00204300
Pt       7.00816440       2.42632071      26.91485793        1       0.00000000       0.00793699       0.00299661      -0.00203912
Pt       2.84192529       4.88217751      26.91115809        1       0.00000000       0.01777720       0.00994353      -0.01001206
Pt       5.61350167       4.86633440      26.92578483        1       0.00000000      -0.00124093      -0.02262534      -0.02764515
Pt       8.38699727       4.88233965      26.91110833        1       0.00000000      -0.01762837       0.01045489      -0.01030442
O        9.82538332       4.05176782      29.28748916        0       0.50000000       0.00074846      -0.00056381       0.04481040
H        9.82514188       4.05193838      28.29387472        0       0.50000000      -0.00059890       0.00047037      -0.00769782
