38
Lattice="8.421641763931781 0.0 0.0 4.2108208819658905 7.293355709136913 0.0 0.0 0.0 46.87624170604845" Properties=species:S:1:pos:R:3:tags:I:1:initial_magmoms:R:1:forces:R:3 charge=0 spin=0 energy=-194.69025370175206 free_energy=-194.69025370175206 stress="0.00966295599937439 -1.1161943369586425e-08 1.924759800431275e-07 -1.1161943369586425e-08 0.00966318603605032 3.901748186763143e-07 1.924759800431275e-07 3.901748186763143e-07 -0.00012531288666650653" pbc="T T T"
Pt      -0.00000001       0.00000015      19.95723445        4       0.00000000      -0.00037996       0.00066617       0.01465450
Pt       2.80721394      -0.00000009      19.95723448        4       0.00000000       0.00074866       0.00002972       0.01465047
Pt       5.61442781      -0.00000017      19.95723450        4       0.00000000      -0.00072928       0.00548815      -0.00030316
Pt       1.40360720       2.43111836      19.95723436        4       0.00000000       0.00079496      -0.00292842       0.01080637
Pt       4.21082078       2.43111836      19.95723446        4       0.00000000       0.00509194      -0.00210982      -0.00030316
Pt       7.01803484       2.43111844      19.95723431        4       0.00000000      -0.00436551      -0.00337210      -0.00027197
Pt       2.80721414       4.86223727      19.95723413        4       0.00000000       0.00214907       0.00214869       0.01081679
Pt       5.61442797       4.86223736      19.95723433        4       0.00000000      -0.00036857      -0.00069877       0.01468164
Pt       8.42164142       4.86223724      19.95723439        4       0.00000000      -0.00294273       0.00077022       0.01081687
Pt       1.40360727       0.81037261      22.29206790        3       0.00000000       0.00194460       0.00034395      -0.04153780
Pt       4.21082126       0.81037249      22.29206793        3       0.00000000      -0.00354556      -0.00094516      -0.00034565
Pt       7.01803475       0.81037258      22.29206787        3       0.00000000       0.00259686      -0.00259378      -0.00035993
Pt       2.80721449       3.24149123      22.29206778        3       0.00000000      -0.00467397       0.00250451      -0.04379471
Pt       5.61442761       3.24149123      22.29206789        3       0.00000000       0.00094661       0.00354600      -0.00035280
Pt       8.42164155       3.24149130      22.29206812        3       0.00000000       0.00453399       0.00278031      -0.04373402
Pt       4.21082090       5.67260997      22.29206743        3       0.00000000      -0.00127938       0.00149355      -0.04152057
Pt       7.01803489       5.67261038      22.29206778        3       0.00000000      -0.00067113      -0.00183572      -0.04146535
Pt       9.82524818       5.67261058      22.29206804        3       0.00000000       0.00014559      -0.00530186      -0.04372570
Pt      -0.00000057       1.62074568      24.58417368        2       0.00000000       0.00892719      -0.00354302       0.01371854
Pt       2.80721445       1.62074549      24.58417387        2       0.00000000       0.00079721      -0.00242454       0.01405912
Pt       5.61442780       1.62074538      24.58417368        2       0.00000000       0.00000269       0.00001860      -0.01666331
Pt       1.40360635       4.05186441      24.58417386        2       0.00000000      -0.00000616       0.00003793       0.03614137
Pt       4.21082088       4.05186391      24.58417389        2       0.00000000      -0.00122333       0.00949827       0.01381540
Pt       7.01803505       4.05186405      24.58417404        2       0.00000000      -0.00275462       0.00047628       0.01415909
Pt       2.80721273       6.48298348      24.58417381        2       0.00000000       0.00186111       0.00205396       0.01402128
Pt       5.61442805       6.48298330      24.58417394        2       0.00000000      -0.00000979      -0.00008164       0.02356036
Pt       8.42164222       6.48298341      24.58417373        2       0.00000000      -0.00757682      -0.00595734       0.01383832
Pt       0.00109115      -0.00020869      26.91790569        1       0.00000000      -0.00114435       0.00726985       0.00822105
Pt       2.80646273      -0.00080118      26.91790646        1       0.00000000       0.00703705      -0.00289380       0.00820691
Pt       5.61537063       0.00981545      26.91385811        1       0.00000000      -0.00311299      -0.00401585       0.00609877
Pt       1.40403238       2.39105016      26.91114322        1       0.00000000      -0.00418761       0.00414459       0.00451212
Pt       4.21886410       2.42539944      26.91386525        1       0.00000000      -0.00188593       0.00470314       0.00594916
Pt       7.00905856       2.42702899      26.91386024        1       0.00000000       0.00496365      -0.00072840       0.00597929
Pt       2.84174705       4.88264166      26.91112634        1       0.00000000      -0.00151710      -0.00538514       0.00380979
Pt       5.61408213       4.86330591      26.91796989        1       0.00000000      -0.00573939      -0.00466080       0.00749903
Pt       8.38668428       4.88190115      26.91115020        1       0.00000000       0.00566504       0.00159339       0.00400262
O        9.82517989       4.05175603      29.30709046        0       0.50000000      -0.00040764      -0.00054423      -0.00622704
H        9.82531624       4.05194214      28.31311283        0       0.50000000       0.00031557       0.00045307       0.00658633
