38
Lattice="8.421641763931781 0.0 0.0 4.2108208819658905 7.293355709136913 0.0 0.0 0.0 46.87624170604845" Properties=species:S:1:pos:R:3:tags:I:1:initial_magmoms:R:1:forces:R:3 charge=0 spin=0 energy=-194.68892046505772 free_energy=-194.68892046505772 stress="0.009775783866643906 3.987184271636579e-08 4.354426863528715e-08 3.987184271636579e-08 0.009775771759450436 1.387952011100424e-07 4.354426863528715e-08 1.387952011100424e-07 5.033390334574506e-05" pbc="T T T"
Pt      -0.00000001       0.00000015      19.95723445        4       0.00000000       0.00014615       0.00039569       0.01475473
Pt       2.80721394      -0.00000009      19.95723448        4       0.00000000       0.00024337      -0.00028716       0.01474712
Pt       5.61442781      -0.00000017      19.95723450        4       0.00000000      -0.00058541       0.00533923      -0.00014692
Pt       1.40360720       2.43111836      19.95723436        4       0.00000000       0.00091997      -0.00231290       0.01103453
Pt       4.21082078       2.43111836      19.95723446        4       0.00000000       0.00489346      -0.00216886      -0.00012695
Pt       7.01803484       2.43111844      19.95723431        4       0.00000000      -0.00430040      -0.00318119      -0.00010316
Pt       2.80721414       4.86223727      19.95723413        4       0.00000000       0.00154349       0.00195107       0.01103589
Pt       5.61442797       4.86223736      19.95723433        4       0.00000000      -0.00039270      -0.00009499       0.01477449
Pt       8.42164142       4.86223724      19.95723439        4       0.00000000      -0.00246707       0.00035349       0.01103271
Pt       1.40360727       0.81037261      22.29206790        3       0.00000000       0.00216366       0.00088255      -0.03909248
Pt       4.21082126       0.81037249      22.29206793        3       0.00000000      -0.00270126      -0.00022437      -0.00461889
Pt       7.01803475       0.81037258      22.29206787        3       0.00000000       0.00153413      -0.00227766      -0.00457812
Pt       2.80721449       3.24149123      22.29206778        3       0.00000000      -0.00428557       0.00231329      -0.04262108
Pt       5.61442761       3.24149123      22.29206789        3       0.00000000       0.00118604       0.00248101      -0.00466384
Pt       8.42164155       3.24149130      22.29206812        3       0.00000000       0.00414523       0.00259568      -0.04256067
Pt       4.21082090       5.67260997      22.29206743        3       0.00000000      -0.00186396       0.00138237      -0.03923450
Pt       7.01803489       5.67261038      22.29206778        3       0.00000000      -0.00029387      -0.00228607      -0.03920502
Pt       9.82524818       5.67261058      22.29206804        3       0.00000000       0.00013435      -0.00486286      -0.04267992
Pt      -0.00000057       1.62074568      24.58417368        2       0.00000000       0.02120761      -0.00303159       0.02825877
Pt       2.80721445       1.62074549      24.58417387        2       0.00000000      -0.01350746      -0.00467979       0.03163208
Pt       5.61442780       1.62074538      24.58417368        2       0.00000000       0.00005917      -0.00010174       0.00390982
Pt       1.40360635       4.05186441      24.58417386        2       0.00000000       0.00000696      -0.00030287       0.07656953
Pt       4.21082088       4.05186391      24.58417389        2       0.00000000      -0.00799409       0.01949702       0.02723265
Pt       7.01803505       4.05186405      24.58417404        2       0.00000000       0.00253865       0.01339429       0.03081405
Pt       2.80721273       6.48298348      24.58417381        2       0.00000000       0.01086920      -0.00868183       0.03137221
Pt       5.61442805       6.48298330      24.58417394        2       0.00000000      -0.00005507       0.00039476       0.06580859
Pt       8.42164222       6.48298341      24.58417373        2       0.00000000      -0.01312540      -0.01645062       0.02776657
Pt      -0.00247136       0.00439600      26.92214247        1       0.00000000       0.02896639      -0.02652257      -0.01802135
Pt       2.81228628      -0.00000515      26.92208731        1       0.00000000      -0.03769343      -0.01190103      -0.01774936
Pt       5.61641432       0.00322733      26.91290654        1       0.00000000      -0.00542392       0.03773984       0.00897315
Pt       1.40306171       2.39106647      26.92063717        1       0.00000000       0.00306813       0.01208986      -0.03254942
Pt       4.21260239       2.42777052      26.91279385        1       0.00000000       0.03539133      -0.01416765       0.00945004
Pt       7.01422202       2.43117890      26.91286202        1       0.00000000      -0.02976392      -0.02361704       0.00916075
Pt       2.84214900       4.88186132      26.92035232        1       0.00000000      -0.01204557      -0.00358337      -0.03172025
Pt       5.61191057       4.85786024      26.92178567        1       0.00000000       0.00831431       0.03865115      -0.01650201
Pt       8.38719895       4.88269887      26.92036594        1       0.00000000       0.00915373      -0.00871507      -0.03173250
O        9.82524750       4.05177996      29.32965049        0       0.50000000      -0.00004349      -0.00079568      -0.02414582
H        9.82525693       4.05195584      28.33578297        0       0.50000000       0.00005699       0.00078581       0.00372433
