38
Lattice="8.421641763931781 0.0 0.0 4.2108208819658905 7.293355709136913 0.0 0.0 0.0 46.87624170604845" Properties=species:S:1:pos:R:3:tags:I:1:initial_magmoms:R:1:forces:R:3 charge=0 spin=0 energy=-194.68892237240635 free_energy=-194.68892237240635 stress="0.009775770828127861 3.6568827965766104e-08 4.063241121343708e-08 3.6568827965766104e-08 0.009775766171514988 1.377977696392918e-07 4.063241121343708e-08 1.377977696392918e-07 5.034877540310845e-05" pbc="T T T"
Pt      -0.00000001       0.00000015      19.95723445        4       0.00000000       0.00014657       0.00039571       0.01475486
Pt       2.80721394      -0.00000009      19.95723448        4       0.00000000       0.00024339      -0.00028724       0.01474714
Pt       5.61442781      -0.00000017      19.95723450        4       0.00000000      -0.00058537       0.00533909      -0.00014684
Pt       1.40360720       2.43111836      19.95723436        4       0.00000000       0.00092012      -0.00231294       0.01103436
Pt       4.21082078       2.43111836      19.95723446        4       0.00000000       0.00489346      -0.00216888      -0.00012718
Pt       7.01803484       2.43111844      19.95723431        4       0.00000000      -0.00430038      -0.00318106      -0.00010329
Pt       2.80721414       4.86223727      19.95723413        4       0.00000000       0.00154349       0.00195127       0.01103589
Pt       5.61442797       4.86223736      19.95723433        4       0.00000000      -0.00039272      -0.00009479       0.01477468
Pt       8.42164142       4.86223724      19.95723439        4       0.00000000      -0.00246726       0.00035354       0.01103279
Pt       1.40360727       0.81037261      22.29206790        3       0.00000000       0.00216357       0.00088244      -0.03909229
Pt       4.21082126       0.81037249      22.29206793        3       0.00000000      -0.00270140      -0.00022481      -0.00461894
Pt       7.01803475       0.81037258      22.29206787        3       0.00000000       0.00153381      -0.00227808      -0.00457777
Pt       2.80721449       3.24149123      22.29206778        3       0.00000000      -0.00428558       0.00231343      -0.04262163
Pt       5.61442761       3.24149123      22.29206789        3       0.00000000       0.00118611       0.00248096      -0.00466355
Pt       8.42164155       3.24149130      22.29206812        3       0.00000000       0.00414539       0.00259600      -0.04256113
Pt       4.21082090       5.67260997      22.29206743        3       0.00000000      -0.00186425       0.00138182      -0.03923312
Pt       7.01803489       5.67261038      22.29206778        3       0.00000000      -0.00029395      -0.00228621      -0.03920453
Pt       9.82524818       5.67261058      22.29206804        3       0.00000000       0.00013437      -0.00486282      -0.04268115
Pt      -0.00000057       1.62074568      24.58417368        2       0.00000000       0.02120615      -0.00303420       0.02826118
Pt       2.80721445       1.62074549      24.58417387        2       0.00000000      -0.01350987      -0.00468441       0.03162897
Pt       5.61442780       1.62074538      24.58417368        2       0.00000000       0.00006031      -0.00010243       0.00390958
Pt       1.40360635       4.05186441      24.58417386        2       0.00000000       0.00000840      -0.00030354       0.07656800
Pt       4.21082088       4.05186391      24.58417389        2       0.00000000      -0.00799354       0.01949965       0.02722989
Pt       7.01803505       4.05186405      24.58417404        2       0.00000000       0.00253642       0.01339285       0.03081023
Pt       2.80721273       6.48298348      24.58417381        2       0.00000000       0.01087278      -0.00867900       0.03137954
Pt       5.61442805       6.48298330      24.58417394        2       0.00000000      -0.00005390       0.00039604       0.06580976
Pt       8.42164222       6.48298341      24.58417373        2       0.00000000      -0.01312693      -0.01644686       0.02776684
Pt      -0.00246750       0.00439579      26.92214375        1       0.00000000       0.02894180      -0.02652601      -0.01803038
Pt       2.81228596      -0.00000543      26.92208774        1       0.00000000      -0.03769054      -0.01189961      -0.01775674
Pt       5.61641435       0.00322743      26.91290645        1       0.00000000      -0.00541879       0.03773942       0.00897063
Pt       1.40306116       2.39106594      26.92063684        1       0.00000000       0.00306863       0.01209256      -0.03254963
Pt       4.21259992       2.42777054      26.91279260        1       0.00000000       0.03540670      -0.01416859       0.00945824
Pt       7.01422151       2.43117873      26.91286200        1       0.00000000      -0.02976380      -0.02362219       0.00915928
Pt       2.84214919       4.88186177      26.92035204        1       0.00000000      -0.01204515      -0.00357737      -0.03172303
Pt       5.61191053       4.85786030      26.92178579        1       0.00000000       0.00831165       0.03864875      -0.01650085
Pt       8.38719853       4.88269892      26.92036533        1       0.00000000       0.00915824      -0.00871414      -0.03172328
O        9.82524753       4.05178001      29.32964612        0       0.50000000      -0.00004222      -0.00079434      -0.02420977
H        9.82525688       4.05195574      28.33577797        0       0.50000000       0.00005459       0.00078588       0.00379350
