38
Lattice="8.421641763931781 0.0 0.0 4.2108208819658905 7.293355709136913 0.0 0.0 0.0 46.87624170604845" Properties=species:S:1:pos:R:3:tags:I:1:initial_magmoms:R:1:forces:R:3 charge=0 spin=0 energy=-194.6895289092716 free_energy=-194.6895289092716 stress="0.009699000976979733 5.491952137504086e-08 -3.4137482884943893e-07 5.491952137504086e-08 0.009699135087430477 3.3587991765671177e-07 -3.4137482884943893e-07 3.3587991765671177e-07 -5.1387738494668156e-05" pbc="T T T"
Pt      -0.00000001       0.00000015      19.95723445        4       0.00000000      -0.00033957       0.00070168       0.01483403
Pt       2.80721394      -0.00000009      19.95723448        4       0.00000000       0.00075419      -0.00002104       0.01482979
Pt       5.61442781      -0.00000017      19.95723450        4       0.00000000      -0.00071482       0.00549431      -0.00049048
Pt       1.40360720       2.43111836      19.95723436        4       0.00000000       0.00091671      -0.00339338       0.01070447
Pt       4.21082078       2.43111836      19.95723446        4       0.00000000       0.00509156      -0.00212729      -0.00047561
Pt       7.01803484       2.43111844      19.95723431        4       0.00000000      -0.00437010      -0.00336431      -0.00047076
Pt       2.80721414       4.86223727      19.95723413        4       0.00000000       0.00249018       0.00249123       0.01072011
Pt       5.61442797       4.86223736      19.95723433        4       0.00000000      -0.00041595      -0.00068023       0.01486275
Pt       8.42164142       4.86223724      19.95723439        4       0.00000000      -0.00340882       0.00089600       0.01071462
Pt       1.40360727       0.81037261      22.29206790        3       0.00000000       0.00203023       0.00091777      -0.04077055
Pt       4.21082126       0.81037249      22.29206793        3       0.00000000      -0.00362228      -0.00124310       0.00132598
Pt       7.01803475       0.81037258      22.29206787        3       0.00000000       0.00289335      -0.00251409       0.00133710
Pt       2.80721449       3.24149123      22.29206778        3       0.00000000      -0.00540438       0.00279897      -0.04679453
Pt       5.61442761       3.24149123      22.29206789        3       0.00000000       0.00074083       0.00376468       0.00132526
Pt       8.42164155       3.24149130      22.29206812        3       0.00000000       0.00514368       0.00326989      -0.04675652
Pt       4.21082090       5.67260997      22.29206743        3       0.00000000      -0.00181820       0.00128016      -0.04075413
Pt       7.01803489       5.67261038      22.29206778        3       0.00000000      -0.00021536      -0.00219242      -0.04072258
Pt       9.82524818       5.67261058      22.29206804        3       0.00000000       0.00025773      -0.00607372      -0.04675284
Pt      -0.00000057       1.62074568      24.58417368        2       0.00000000       0.00887446      -0.01313550       0.03156387
Pt       2.80721445       1.62074549      24.58417387        2       0.00000000       0.00110504      -0.01219032       0.03427643
Pt       5.61442780       1.62074538      24.58417368        2       0.00000000      -0.00000260       0.00002656      -0.01372260
Pt       1.40360635       4.05186441      24.58417386        2       0.00000000       0.00003423      -0.00003156       0.03264157
Pt       4.21082088       4.05186391      24.58417389        2       0.00000000       0.00699630       0.01421480       0.03157958
Pt       7.01803505       4.05186405      24.58417404        2       0.00000000      -0.01137096       0.00495750       0.03416366
Pt       2.80721273       6.48298348      24.58417381        2       0.00000000       0.01016182       0.00714659       0.03429428
Pt       5.61442805       6.48298330      24.58417394        2       0.00000000       0.00000223      -0.00001440       0.04935018
Pt       8.42164222       6.48298341      24.58417373        2       0.00000000      -0.01583363      -0.00094676       0.03138557
Pt       0.00400891      -0.00124705      26.92577614        1       0.00000000      -0.01897237       0.01237598      -0.02762520
Pt       2.80412764      -0.00284451      26.92577646        1       0.00000000       0.02018968       0.01025866      -0.02761680
Pt       5.61521292       0.01094558      26.91484680        1       0.00000000      -0.00136310      -0.00836315      -0.00207934
Pt       1.40351686       2.39109076      26.91117420        1       0.00000000      -0.00026544      -0.02036451      -0.00995264
Pt       4.21991265       2.42496969      26.91485493        1       0.00000000      -0.00654805       0.00536750      -0.00203341
Pt       7.00816636       2.42632162      26.91485806        1       0.00000000       0.00792618       0.00299095      -0.00203674
Pt       2.84192437       4.88217698      26.91116113        1       0.00000000       0.01777042       0.00994118      -0.01002319
Pt       5.61350150       4.86633050      26.92577912        1       0.00000000      -0.00123890      -0.02260107      -0.02762263
Pt       8.38699863       4.88233903      26.91111131        1       0.00000000      -0.01762373       0.01045601      -0.01031628
O        9.82538241       4.05176875      29.28750116        0       0.50000000       0.00075211      -0.00054063       0.04487222
H        9.82514254       4.05193736      28.29388798        0       0.50000000      -0.00060265       0.00044693      -0.00776474
