38
Lattice="8.421641763931781 0.0 0.0 4.2108208819658905 7.293355709136913 0.0 0.0 0.0 46.87624170604845" Properties=species:S:1:pos:R:3:tags:I:1:initial_magmoms:R:1:forces:R:3 charge=0 spin=0 energy=-194.6902861266788 free_energy=-194.6902861266788 stress="0.009694725275039673 -4.5303682583153204e-08 -1.5594913804761745e-08 -4.5303682583153204e-08 0.009694630280137062 4.3380147474181285e-08 -1.5594913804761745e-08 4.3380147474181285e-08 -8.106757013592869e-05" pbc="T T T"
Pt      -0.00000001       0.00000015      19.95723445        4       0.00000000      -0.00033878       0.00059830       0.01470547
Pt       2.80721394      -0.00000009      19.95723448        4       0.00000000       0.00066575       0.00003036       0.01470019
Pt       5.61442781      -0.00000017      19.95723450        4       0.00000000      -0.00067344       0.00548782      -0.00029565
Pt       1.40360720       2.43111836      19.95723436        4       0.00000000       0.00086083      -0.00285199       0.01083941
Pt       4.21082078       2.43111836      19.95723446        4       0.00000000       0.00505869      -0.00215592      -0.00030960
Pt       7.01803484       2.43111844      19.95723431        4       0.00000000      -0.00438443      -0.00332038      -0.00028772
Pt       2.80721414       4.86223727      19.95723413        4       0.00000000       0.00205028       0.00216812       0.01085203
Pt       5.61442797       4.86223736      19.95723433        4       0.00000000      -0.00032817      -0.00062955       0.01473022
Pt       8.42164142       4.86223724      19.95723439        4       0.00000000      -0.00291132       0.00067553       0.01085039
Pt       1.40360727       0.81037261      22.29206790        3       0.00000000       0.00201088       0.00043284      -0.04138282
Pt       4.21082126       0.81037249      22.29206793        3       0.00000000      -0.00351779      -0.00092790      -0.00070385
Pt       7.01803475       0.81037258      22.29206787        3       0.00000000       0.00256906      -0.00257153      -0.00070781
Pt       2.80721449       3.24149123      22.29206778        3       0.00000000      -0.00471527       0.00249484      -0.04389718
Pt       5.61442761       3.24149123      22.29206789        3       0.00000000       0.00094747       0.00351521      -0.00070056
Pt       8.42164155       3.24149130      22.29206812        3       0.00000000       0.00453761       0.00282918      -0.04384384
Pt       4.21082090       5.67260997      22.29206743        3       0.00000000      -0.00139266       0.00151249      -0.04136332
Pt       7.01803489       5.67261038      22.29206778        3       0.00000000      -0.00063036      -0.00193710      -0.04132040
Pt       9.82524818       5.67261058      22.29206804        3       0.00000000       0.00017991      -0.00533077      -0.04383508
Pt      -0.00000057       1.62074568      24.58417368        2       0.00000000       0.01020921      -0.00489221       0.01908674
Pt       2.80721445       1.62074549      24.58417387        2       0.00000000      -0.00063348      -0.00412582       0.02234786
Pt       5.61442780       1.62074538      24.58417368        2       0.00000000       0.00000300       0.00002652      -0.01024018
Pt       1.40360635       4.05186441      24.58417386        2       0.00000000       0.00001105       0.00000329       0.04169573
Pt       4.21082088       4.05186391      24.58417389        2       0.00000000      -0.00090773       0.01131256       0.01926768
Pt       7.01803505       4.05186405      24.58417404        2       0.00000000      -0.00334252       0.00255719       0.02249873
Pt       2.80721273       6.48298348      24.58417381        2       0.00000000       0.00405787       0.00154217       0.02241922
Pt       5.61442805       6.48298330      24.58417394        2       0.00000000      -0.00000569       0.00000615       0.03884819
Pt       8.42164222       6.48298341      24.58417373        2       0.00000000      -0.00938134      -0.00644857       0.01918758
Pt       0.00048446       0.00096643      26.92008308        1       0.00000000       0.00485538      -0.00275220      -0.00386129
Pt       2.80781069      -0.00090235      26.92008177        1       0.00000000      -0.00479158      -0.00285856      -0.00385565
Pt       5.61504809       0.00911742      26.91459352        1       0.00000000      -0.00044851       0.00090444       0.00246978
Pt       1.40346414       2.39118729      26.91254727        1       0.00000000       0.00026798      -0.00048808      -0.00394289
Pt       4.21840790       2.42602827      26.91460861        1       0.00000000       0.00099794      -0.00007281       0.00224724
Pt       7.00983306       2.42709242      26.91460935        1       0.00000000      -0.00055979      -0.00084702       0.00223869
Pt       2.84184990       4.88207347      26.91256628        1       0.00000000       0.00021213       0.00044578      -0.00376091
Pt       5.61334773       4.86216852      26.92008012        1       0.00000000      -0.00004678       0.00557926      -0.00408286
Pt       8.38714256       4.88231313      26.91256667        1       0.00000000      -0.00048511      -0.00003000      -0.00376377
O        9.82525017       4.05196458      29.30751200        0       0.50000000       0.00001118       0.00055965       0.01961818
H        9.82524723       4.05178040      28.31416623        0       0.50000000      -0.00001134      -0.00044143      -0.01644779
