38
Lattice="8.421641763931781 0.0 0.0 4.2108208819658905 7.293355709136913 0.0 0.0 0.0 46.87624170604845" Properties=species:S:1:pos:R:3:tags:I:1:initial_magmoms:R:1:forces:R:3 charge=0 spin=0 energy=-194.6902861266788 free_energy=-194.6902861266788 stress="0.00969470851123333 -5.6454119601312414e-08 2.473860760687785e-08 -5.6454119601312414e-08 0.009694602340459824 2.9064320727911763e-08 2.473860760687785e-08 2.9064320727911763e-08 -8.109593909466639e-05" pbc="T T T"
Pt      -0.00000001       0.00000015      19.95723445        4       0.00000000      -0.00033856       0.00059826       0.01470554
Pt       2.80721394      -0.00000009      19.95723448        4       0.00000000       0.00066583       0.00003026       0.01470028
Pt       5.61442781      -0.00000017      19.95723450        4       0.00000000      -0.00067362       0.00548797      -0.00029523
Pt       1.40360720       2.43111836      19.95723436        4       0.00000000       0.00086111      -0.00285197       0.01083943
Pt       4.21082078       2.43111836      19.95723446        4       0.00000000       0.00505842      -0.00215573      -0.00031060
Pt       7.01803484       2.43111844      19.95723431        4       0.00000000      -0.00438491      -0.00332050      -0.00028706
Pt       2.80721414       4.86223727      19.95723413        4       0.00000000       0.00205026       0.00216796       0.01085190
Pt       5.61442797       4.86223736      19.95723433        4       0.00000000      -0.00032828      -0.00062956       0.01473022
Pt       8.42164142       4.86223724      19.95723439        4       0.00000000      -0.00291135       0.00067552       0.01085039
Pt       1.40360727       0.81037261      22.29206790        3       0.00000000       0.00201078       0.00043256      -0.04138356
Pt       4.21082126       0.81037249      22.29206793        3       0.00000000      -0.00351835      -0.00092764      -0.00070239
Pt       7.01803475       0.81037258      22.29206787        3       0.00000000       0.00256923      -0.00257119      -0.00070776
Pt       2.80721449       3.24149123      22.29206778        3       0.00000000      -0.00471524       0.00249433      -0.04389782
Pt       5.61442761       3.24149123      22.29206789        3       0.00000000       0.00094655       0.00351517      -0.00069998
Pt       8.42164155       3.24149130      22.29206812        3       0.00000000       0.00453784       0.00282911      -0.04384369
Pt       4.21082090       5.67260997      22.29206743        3       0.00000000      -0.00139275       0.00151221      -0.04136457
Pt       7.01803489       5.67261038      22.29206778        3       0.00000000      -0.00063046      -0.00193737      -0.04131964
Pt       9.82524818       5.67261058      22.29206804        3       0.00000000       0.00017987      -0.00533085      -0.04383510
Pt      -0.00000057       1.62074568      24.58417368        2       0.00000000       0.01020170      -0.00489596       0.01907397
Pt       2.80721445       1.62074549      24.58417387        2       0.00000000      -0.00062835      -0.00412825       0.02233868
Pt       5.61442780       1.62074538      24.58417368        2       0.00000000       0.00000376       0.00002628      -0.01023991
Pt       1.40360635       4.05186441      24.58417386        2       0.00000000       0.00000788       0.00000644       0.04168860
Pt       4.21082088       4.05186391      24.58417389        2       0.00000000      -0.00090120       0.01130931       0.01925843
Pt       7.01803505       4.05186405      24.58417404        2       0.00000000      -0.00333730       0.00256118       0.02250643
Pt       2.80721273       6.48298348      24.58417381        2       0.00000000       0.00405711       0.00155087       0.02240630
Pt       5.61442805       6.48298330      24.58417394        2       0.00000000      -0.00000570       0.00000697       0.03884907
Pt       8.42164222       6.48298341      24.58417373        2       0.00000000      -0.00938199      -0.00645563       0.01919570
Pt       0.00048402       0.00096661      26.92008306        1       0.00000000       0.00485786      -0.00275358      -0.00385934
Pt       2.80781147      -0.00090210      26.92008222        1       0.00000000      -0.00479457      -0.00286410      -0.00385629
Pt       5.61504798       0.00911737      26.91459359        1       0.00000000      -0.00044742       0.00090687       0.00247033
Pt       1.40346410       2.39118599      26.91254511        1       0.00000000       0.00026770      -0.00048818      -0.00393377
Pt       4.21840768       2.42602849      26.91460853        1       0.00000000       0.00100091      -0.00007234       0.00224728
Pt       7.00983304       2.42709255      26.91460957        1       0.00000000      -0.00056196      -0.00084952       0.00223812
Pt       2.84185152       4.88207443      26.91256290        1       0.00000000       0.00021535       0.00044959      -0.00376668
Pt       5.61334784       4.86216789      26.92008035        1       0.00000000      -0.00004505       0.00558281      -0.00408288
Pt       8.38714325       4.88231292      26.91256811        1       0.00000000      -0.00047848      -0.00003349      -0.00373871
O        9.82523613       4.05196967      29.30750817        0       0.50000000      -0.00007265       0.00058851       0.01962217
H        9.82525883       4.05177613      28.31416313        0       0.50000000       0.00005578      -0.00046629      -0.01644788
