38
Lattice="8.421641763931781 0.0 0.0 4.2108208819658905 7.293355709136913 0.0 0.0 0.0 46.87624170604845" Properties=species:S:1:pos:R:3:tags:I:1:initial_magmoms:R:1:forces:R:3 charge=0 spin=0 energy=-194.68953272396885 free_energy=-194.68953272396885 stress="0.009699009358882904 5.8248772916158487e-08 -3.594539350615378e-07 5.8248772916158487e-08 0.009699161164462566 3.6621736398956273e-07 -3.594539350615378e-07 3.6621736398956273e-07 -5.137337575433776e-05" pbc="T T T"
Pt      -0.00000001       0.00000015      19.95723445        4       0.00000000      -0.00033975       0.00070193       0.01483420
Pt       2.80721394      -0.00000009      19.95723448        4       0.00000000       0.00075424      -0.00002133       0.01483022
Pt       5.61442781      -0.00000017      19.95723450        4       0.00000000      -0.00071462       0.00549400      -0.00049107
Pt       1.40360720       2.43111836      19.95723436        4       0.00000000       0.00091664      -0.00339356       0.01070436
Pt       4.21082078       2.43111836      19.95723446        4       0.00000000       0.00509175      -0.00212731      -0.00047453
Pt       7.01803484       2.43111844      19.95723431        4       0.00000000      -0.00437002      -0.00336455      -0.00047084
Pt       2.80721414       4.86223727      19.95723413        4       0.00000000       0.00249039       0.00249158       0.01072009
Pt       5.61442797       4.86223736      19.95723433        4       0.00000000      -0.00041607      -0.00068019       0.01486270
Pt       8.42164142       4.86223724      19.95723439        4       0.00000000      -0.00340915       0.00089606       0.01071460
Pt       1.40360727       0.81037261      22.29206790        3       0.00000000       0.00202994       0.00091789      -0.04076916
Pt       4.21082126       0.81037249      22.29206793        3       0.00000000      -0.00362207      -0.00124365       0.00132712
Pt       7.01803475       0.81037258      22.29206787        3       0.00000000       0.00289373      -0.00251403       0.00133857
Pt       2.80721449       3.24149123      22.29206778        3       0.00000000      -0.00540507       0.00279940      -0.04679721
Pt       5.61442761       3.24149123      22.29206789        3       0.00000000       0.00074132       0.00376476       0.00132516
Pt       8.42164155       3.24149130      22.29206812        3       0.00000000       0.00514389       0.00327042      -0.04675719
Pt       4.21082090       5.67260997      22.29206743        3       0.00000000      -0.00181844       0.00128013      -0.04075454
Pt       7.01803489       5.67261038      22.29206778        3       0.00000000      -0.00021504      -0.00219232      -0.04072256
Pt       9.82524818       5.67261058      22.29206804        3       0.00000000       0.00025849      -0.00607381      -0.04675576
Pt      -0.00000057       1.62074568      24.58417368        2       0.00000000       0.00887762      -0.01313941       0.03157612
Pt       2.80721445       1.62074549      24.58417387        2       0.00000000       0.00110561      -0.01219587       0.03429260
Pt       5.61442780       1.62074538      24.58417368        2       0.00000000      -0.00000558       0.00002848      -0.01372002
Pt       1.40360635       4.05186441      24.58417386        2       0.00000000       0.00003490      -0.00003281       0.03263029
Pt       4.21082088       4.05186391      24.58417389        2       0.00000000       0.00700328       0.01421350       0.03158427
Pt       7.01803505       4.05186405      24.58417404        2       0.00000000      -0.01138207       0.00495453       0.03415925
Pt       2.80721273       6.48298348      24.58417381        2       0.00000000       0.01016560       0.00714977       0.03430245
Pt       5.61442805       6.48298330      24.58417394        2       0.00000000       0.00000461      -0.00001410       0.04936270
Pt       8.42164222       6.48298341      24.58417373        2       0.00000000      -0.01584029      -0.00093584       0.03138624
Pt       0.00401073      -0.00124792      26.92577982        1       0.00000000      -0.01898345       0.01238223      -0.02764399
Pt       2.80412573      -0.00284524      26.92578046        1       0.00000000       0.02020092       0.01026320      -0.02764182
Pt       5.61521299       0.01094631      26.91484732        1       0.00000000      -0.00136244      -0.00836936      -0.00208046
Pt       1.40351708       2.39109302      26.91117509        1       0.00000000      -0.00026875      -0.02037244      -0.00992847
Pt       4.21991368       2.42496904      26.91485513        1       0.00000000      -0.00655081       0.00537058      -0.00204471
Pt       7.00816565       2.42632158      26.91485795        1       0.00000000       0.00792915       0.00299207      -0.00203873
Pt       2.84192333       4.88217607      26.91116021        1       0.00000000       0.01778575       0.00995011      -0.01001783
Pt       5.61350145       4.86633271      26.92578307        1       0.00000000      -0.00124027      -0.02261097      -0.02763792
Pt       8.38699783       4.88233922      26.91110737        1       0.00000000      -0.01764377       0.01046704      -0.01033163
O        9.82539020       4.05175629      29.28749828        0       0.50000000       0.00078745      -0.00060886       0.04488826
H        9.82513580       4.05194684      28.29388587        0       0.50000000      -0.00062753       0.00050259      -0.00776062
