38
Lattice="8.421641763931781 0.0 0.0 4.2108208819658905 7.293355709136913 0.0 0.0 0.0 46.87624170604845" Properties=species:S:1:pos:R:3:tags:I:1:initial_magmoms:R:1:forces:R:3 charge=0 spin=0 energy=-194.68953272396885 free_energy=-194.68953272396885 stress="0.009698986075818539 6.445573319524556e-08 -3.7443786027324677e-07 6.445573319524556e-08 0.00969913974404335 3.5329233583070163e-07 -3.7443786027324677e-07 3.5329233583070163e-07 -5.134866660227999e-05" pbc="T T T"
Pt      -0.00000001       0.00000015      19.95723445        4       0.00000000      -0.00033965       0.00070183       0.01483420
Pt       2.80721394      -0.00000009      19.95723448        4       0.00000000       0.00075415      -0.00002121       0.01482994
Pt       5.61442781      -0.00000017      19.95723450        4       0.00000000      -0.00071463       0.00549453      -0.00049111
Pt       1.40360720       2.43111836      19.95723436        4       0.00000000       0.00091691      -0.00339372       0.01070428
Pt       4.21082078       2.43111836      19.95723446        4       0.00000000       0.00509208      -0.00212749      -0.00047491
Pt       7.01803484       2.43111844      19.95723431        4       0.00000000      -0.00437013      -0.00336460      -0.00047129
Pt       2.80721414       4.86223727      19.95723413        4       0.00000000       0.00249032       0.00249163       0.01072003
Pt       5.61442797       4.86223736      19.95723433        4       0.00000000      -0.00041588      -0.00068021       0.01486268
Pt       8.42164142       4.86223724      19.95723439        4       0.00000000      -0.00340932       0.00089613       0.01071435
Pt       1.40360727       0.81037261      22.29206790        3       0.00000000       0.00202989       0.00091784      -0.04076993
Pt       4.21082126       0.81037249      22.29206793        3       0.00000000      -0.00362237      -0.00124376       0.00132793
Pt       7.01803475       0.81037258      22.29206787        3       0.00000000       0.00289372      -0.00251401       0.00133978
Pt       2.80721449       3.24149123      22.29206778        3       0.00000000      -0.00540564       0.00279974      -0.04679758
Pt       5.61442761       3.24149123      22.29206789        3       0.00000000       0.00074095       0.00376537       0.00132690
Pt       8.42164155       3.24149130      22.29206812        3       0.00000000       0.00514450       0.00327054      -0.04675828
Pt       4.21082090       5.67260997      22.29206743        3       0.00000000      -0.00181883       0.00128016      -0.04075374
Pt       7.01803489       5.67261038      22.29206778        3       0.00000000      -0.00021551      -0.00219233      -0.04072281
Pt       9.82524818       5.67261058      22.29206804        3       0.00000000       0.00025841      -0.00607445      -0.04675626
Pt      -0.00000057       1.62074568      24.58417368        2       0.00000000       0.00887252      -0.01314038       0.03157193
Pt       2.80721445       1.62074549      24.58417387        2       0.00000000       0.00111048      -0.01219655       0.03428739
Pt       5.61442780       1.62074538      24.58417368        2       0.00000000      -0.00000454       0.00002778      -0.01372352
Pt       1.40360635       4.05186441      24.58417386        2       0.00000000       0.00003535      -0.00003207       0.03263464
Pt       4.21082088       4.05186391      24.58417389        2       0.00000000       0.00700214       0.01421342       0.03158750
Pt       7.01803505       4.05186405      24.58417404        2       0.00000000      -0.01138363       0.00495375       0.03415630
Pt       2.80721273       6.48298348      24.58417381        2       0.00000000       0.01016631       0.00714915       0.03430139
Pt       5.61442805       6.48298330      24.58417394        2       0.00000000       0.00000502      -0.00001349       0.04936020
Pt       8.42164222       6.48298341      24.58417373        2       0.00000000      -0.01583943      -0.00093427       0.03137933
Pt       0.00401089      -0.00124807      26.92578021        1       0.00000000      -0.01898528       0.01238232      -0.02764176
Pt       2.80412573      -0.00284536      26.92578057        1       0.00000000       0.02020233       0.01026747      -0.02763752
Pt       5.61521311       0.01094675      26.91484667        1       0.00000000      -0.00136432      -0.00836655      -0.00207735
Pt       1.40351712       2.39108889      26.91117210        1       0.00000000      -0.00025845      -0.02034975      -0.00992731
Pt       4.21991395       2.42496881      26.91485502        1       0.00000000      -0.00655783       0.00536990      -0.00204389
Pt       7.00816528       2.42632116      26.91485795        1       0.00000000       0.00793458       0.00299258      -0.00203818
Pt       2.84192573       4.88217748      26.91115919        1       0.00000000       0.01776394       0.00993016      -0.01000303
Pt       5.61350144       4.86633269      26.92578357        1       0.00000000      -0.00124138      -0.02261228      -0.02763936
Pt       8.38699578       4.88234079      26.91110649        1       0.00000000      -0.01762559       0.01045610      -0.01032130
O        9.82539088       4.05176407      29.28749175        0       0.50000000       0.00082956      -0.00058089       0.04480564
H        9.82513500       4.05194131      28.29387758        0       0.50000000      -0.00067063       0.00047759      -0.00769561
