38
Lattice="8.421641763931781 0.0 0.0 4.2108208819658905 7.293355709136913 0.0 0.0 0.0 46.87624170604845" Properties=species:S:1:pos:R:3:tags:I:1:initial_magmoms:R:1:forces:R:3 charge=0 spin=0 energy=-194.6889185577091 free_energy=-194.6889185577091 stress="0.009775790385901928 3.7452579704222444e-08 4.1941405015677446e-08 3.7452579704222444e-08 0.009775777347385883 1.37488441964706e-07 4.1941405015677446e-08 1.37488441964706e-07 5.028692976338789e-05" pbc="T T T"
Pt      -0.00000001       0.00000015      19.95723445        4       0.00000000       0.00014621       0.00039563       0.01475469
Pt       2.80721394      -0.00000009      19.95723448        4       0.00000000       0.00024349      -0.00028725       0.01474701
Pt       5.61442781      -0.00000017      19.95723450        4       0.00000000      -0.00058531       0.00533912      -0.00014680
Pt       1.40360720       2.43111836      19.95723436        4       0.00000000       0.00091988      -0.00231282       0.01103458
Pt       4.21082078       2.43111836      19.95723446        4       0.00000000       0.00489356      -0.00216887      -0.00012695
Pt       7.01803484       2.43111844      19.95723431        4       0.00000000      -0.00430039      -0.00318110      -0.00010297
Pt       2.80721414       4.86223727      19.95723413        4       0.00000000       0.00154349       0.00195113       0.01103604
Pt       5.61442797       4.86223736      19.95723433        4       0.00000000      -0.00039265      -0.00009491       0.01477449
Pt       8.42164142       4.86223724      19.95723439        4       0.00000000      -0.00246707       0.00035339       0.01103282
Pt       1.40360727       0.81037261      22.29206790        3       0.00000000       0.00216342       0.00088252      -0.03909312
Pt       4.21082126       0.81037249      22.29206793        3       0.00000000      -0.00270137      -0.00022427      -0.00461871
Pt       7.01803475       0.81037258      22.29206787        3       0.00000000       0.00153397      -0.00227758      -0.00457805
Pt       2.80721449       3.24149123      22.29206778        3       0.00000000      -0.00428590       0.00231335      -0.04262095
Pt       5.61442761       3.24149123      22.29206789        3       0.00000000       0.00118614       0.00248104      -0.00466395
Pt       8.42164155       3.24149130      22.29206812        3       0.00000000       0.00414562       0.00259555      -0.04256027
Pt       4.21082090       5.67260997      22.29206743        3       0.00000000      -0.00186404       0.00138224      -0.03923491
Pt       7.01803489       5.67261038      22.29206778        3       0.00000000      -0.00029383      -0.00228607      -0.03920471
Pt       9.82524818       5.67261058      22.29206804        3       0.00000000       0.00013464      -0.00486287      -0.04267957
Pt      -0.00000057       1.62074568      24.58417368        2       0.00000000       0.02120696      -0.00303126       0.02825800
Pt       2.80721445       1.62074549      24.58417387        2       0.00000000      -0.01350716      -0.00467999       0.03163127
Pt       5.61442780       1.62074538      24.58417368        2       0.00000000       0.00005907      -0.00010180       0.00391088
Pt       1.40360635       4.05186441      24.58417386        2       0.00000000       0.00000675      -0.00030297       0.07657016
Pt       4.21082088       4.05186391      24.58417389        2       0.00000000      -0.00799329       0.01949686       0.02723286
Pt       7.01803505       4.05186405      24.58417404        2       0.00000000       0.00253807       0.01339384       0.03081348
Pt       2.80721273       6.48298348      24.58417381        2       0.00000000       0.01086902      -0.00868144       0.03137436
Pt       5.61442805       6.48298330      24.58417394        2       0.00000000      -0.00005501       0.00039455       0.06580762
Pt       8.42164222       6.48298341      24.58417373        2       0.00000000      -0.01312538      -0.01645003       0.02776556
Pt      -0.00247035       0.00439615      26.92214212        1       0.00000000       0.02895869      -0.02652535      -0.01802205
Pt       2.81228610      -0.00000520      26.92208694        1       0.00000000      -0.03769248      -0.01190111      -0.01774861
Pt       5.61641418       0.00322730      26.91290665        1       0.00000000      -0.00542013       0.03773824       0.00897279
Pt       1.40306152       2.39106686      26.92063758        1       0.00000000       0.00306968       0.01209274      -0.03254843
Pt       4.21260222       2.42777069      26.91279391        1       0.00000000       0.03539310      -0.01416650       0.00945010
Pt       7.01422192       2.43117887      26.91286215        1       0.00000000      -0.02976488      -0.02361723       0.00916079
Pt       2.84214841       4.88186076      26.92035291        1       0.00000000      -0.01204504      -0.00358016      -0.03171976
Pt       5.61191057       4.85786045      26.92178532        1       0.00000000       0.00831173       0.03864776      -0.01650205
Pt       8.38719929       4.88269857      26.92036639        1       0.00000000       0.00915742      -0.00871477      -0.03173053
O        9.82524755       4.05177990      29.32965434        0       0.50000000      -0.00004332      -0.00079494      -0.02401003
H        9.82525690       4.05195582      28.33578976        0       0.50000000       0.00005635       0.00078559       0.00358506
