38
Lattice="8.421641763931781 0.0 0.0 4.2108208819658905 7.293355709136913 0.0 0.0 0.0 46.87624170604845" Properties=species:S:1:pos:R:3:tags:I:1:initial_magmoms:R:1:forces:R:3 charge=0 spin=0 energy=-194.69028994137608 free_energy=-194.69028994137608 stress="0.009694724343717098 -5.6454119601312414e-08 3.4251399938511895e-08 -5.6454119601312414e-08 0.009694613516330719 2.1965785634847634e-08 3.4251399938511895e-08 2.1965785634847634e-08 -8.11072823125869e-05" pbc="T T T"
Pt      -0.00000001       0.00000015      19.95723445        4       0.00000000      -0.00033855       0.00059835       0.01470562
Pt       2.80721394      -0.00000009      19.95723448        4       0.00000000       0.00066578       0.00003041       0.01470002
Pt       5.61442781      -0.00000017      19.95723450        4       0.00000000      -0.00067362       0.00548806      -0.00029495
Pt       1.40360720       2.43111836      19.95723436        4       0.00000000       0.00086106      -0.00285213       0.01083937
Pt       4.21082078       2.43111836      19.95723446        4       0.00000000       0.00505831      -0.00215570      -0.00031109
Pt       7.01803484       2.43111844      19.95723431        4       0.00000000      -0.00438466      -0.00332047      -0.00028696
Pt       2.80721414       4.86223727      19.95723413        4       0.00000000       0.00205036       0.00216790       0.01085179
Pt       5.61442797       4.86223736      19.95723433        4       0.00000000      -0.00032818      -0.00062956       0.01473032
Pt       8.42164142       4.86223724      19.95723439        4       0.00000000      -0.00291148       0.00067547       0.01085039
Pt       1.40360727       0.81037261      22.29206790        3       0.00000000       0.00201080       0.00043286      -0.04138351
Pt       4.21082126       0.81037249      22.29206793        3       0.00000000      -0.00351817      -0.00092777      -0.00070267
Pt       7.01803475       0.81037258      22.29206787        3       0.00000000       0.00256909      -0.00257127      -0.00070865
Pt       2.80721449       3.24149123      22.29206778        3       0.00000000      -0.00471525       0.00249466      -0.04389916
Pt       5.61442761       3.24149123      22.29206789        3       0.00000000       0.00094653       0.00351507      -0.00069916
Pt       8.42164155       3.24149130      22.29206812        3       0.00000000       0.00453804       0.00282945      -0.04384375
Pt       4.21082090       5.67260997      22.29206743        3       0.00000000      -0.00139284       0.00151209      -0.04136442
Pt       7.01803489       5.67261038      22.29206778        3       0.00000000      -0.00063041      -0.00193763      -0.04131920
Pt       9.82524818       5.67261058      22.29206804        3       0.00000000       0.00018026      -0.00533088      -0.04383470
Pt      -0.00000057       1.62074568      24.58417368        2       0.00000000       0.01020263      -0.00489588       0.01907715
Pt       2.80721445       1.62074549      24.58417387        2       0.00000000      -0.00063021      -0.00412751       0.02234412
Pt       5.61442780       1.62074538      24.58417368        2       0.00000000       0.00000431       0.00002595      -0.01024014
Pt       1.40360635       4.05186441      24.58417386        2       0.00000000       0.00000696       0.00000480       0.04169368
Pt       4.21082088       4.05186391      24.58417389        2       0.00000000      -0.00089955       0.01131037       0.01926359
Pt       7.01803505       4.05186405      24.58417404        2       0.00000000      -0.00333654       0.00256422       0.02251411
Pt       2.80721273       6.48298348      24.58417381        2       0.00000000       0.00405685       0.00155243       0.02240712
Pt       5.61442805       6.48298330      24.58417394        2       0.00000000      -0.00000632       0.00000489       0.03884793
Pt       8.42164222       6.48298341      24.58417373        2       0.00000000      -0.00938240      -0.00645932       0.01920156
Pt       0.00048491       0.00096590      26.92008346        1       0.00000000       0.00485074      -0.00274814      -0.00385900
Pt       2.80781045      -0.00090294      26.92008240        1       0.00000000      -0.00478838      -0.00285628      -0.00385421
Pt       5.61504767       0.00911772      26.91459361        1       0.00000000      -0.00044419       0.00090588       0.00246878
Pt       1.40346391       2.39118591      26.91254530        1       0.00000000       0.00026883      -0.00049394      -0.00395461
Pt       4.21840807       2.42602824      26.91460871        1       0.00000000       0.00099646      -0.00006957       0.00224726
Pt       7.00983265       2.42709252      26.91460942        1       0.00000000      -0.00056131      -0.00085066       0.00223778
Pt       2.84185145       4.88207474      26.91256293        1       0.00000000       0.00022006       0.00044841      -0.00377546
Pt       5.61334843       4.86216905      26.92008114        1       0.00000000      -0.00004949       0.00557204      -0.00409174
Pt       8.38714350       4.88231251      26.91257019        1       0.00000000      -0.00047356      -0.00003382      -0.00373697
O        9.82523165       4.05197325      29.30750662        0       0.50000000      -0.00009831       0.00060575       0.01970122
H        9.82526304       4.05177334      28.31416414        0       0.50000000       0.00007649      -0.00047880      -0.01652099
