38
Lattice="8.421641763931781 0.0 0.0 4.2108208819658905 7.293355709136913 0.0 0.0 0.0 46.87624170604845" Properties=species:S:1:pos:R:3:tags:I:1:initial_magmoms:R:1:forces:R:3 charge=0 spin=0 energy=-194.68953463131749 free_energy=-194.68953463131749 stress="0.009699005633592606 6.34495478379904e-08 -3.7867548030590115e-07 6.34495478379904e-08 0.009699142538011074 3.469652085641428e-07 -3.7867548030590115e-07 3.469652085641428e-07 -5.1356040785321966e-05" pbc="T T T"
Pt      -0.00000001       0.00000015      19.95723445        4       0.00000000      -0.00033963       0.00070198       0.01483425
Pt       2.80721394      -0.00000009      19.95723448        4       0.00000000       0.00075407      -0.00002134       0.01483005
Pt       5.61442781      -0.00000017      19.95723450        4       0.00000000      -0.00071455       0.00549435      -0.00049086
Pt       1.40360720       2.43111836      19.95723436        4       0.00000000       0.00091670      -0.00339393       0.01070417
Pt       4.21082078       2.43111836      19.95723446        4       0.00000000       0.00509183      -0.00212744      -0.00047460
Pt       7.01803484       2.43111844      19.95723431        4       0.00000000      -0.00436980      -0.00336455      -0.00047144
Pt       2.80721414       4.86223727      19.95723413        4       0.00000000       0.00249054       0.00249179       0.01072005
Pt       5.61442797       4.86223736      19.95723433        4       0.00000000      -0.00041602      -0.00068030       0.01486294
Pt       8.42164142       4.86223724      19.95723439        4       0.00000000      -0.00340961       0.00089614       0.01071441
Pt       1.40360727       0.81037261      22.29206790        3       0.00000000       0.00203007       0.00091819      -0.04076992
Pt       4.21082126       0.81037249      22.29206793        3       0.00000000      -0.00362189      -0.00124328       0.00132771
Pt       7.01803475       0.81037258      22.29206787        3       0.00000000       0.00289355      -0.00251359       0.00133953
Pt       2.80721449       3.24149123      22.29206778        3       0.00000000      -0.00540537       0.00279941      -0.04679776
Pt       5.61442761       3.24149123      22.29206789        3       0.00000000       0.00074126       0.00376492       0.00132657
Pt       8.42164155       3.24149130      22.29206812        3       0.00000000       0.00514441       0.00327076      -0.04675967
Pt       4.21082090       5.67260997      22.29206743        3       0.00000000      -0.00181891       0.00128021      -0.04075376
Pt       7.01803489       5.67261038      22.29206778        3       0.00000000      -0.00021462      -0.00219222      -0.04072286
Pt       9.82524818       5.67261058      22.29206804        3       0.00000000       0.00025837      -0.00607398      -0.04675694
Pt      -0.00000057       1.62074568      24.58417368        2       0.00000000       0.00887405      -0.01314577       0.03157926
Pt       2.80721445       1.62074549      24.58417387        2       0.00000000       0.00111015      -0.01219932       0.03429298
Pt       5.61442780       1.62074538      24.58417368        2       0.00000000      -0.00000448       0.00002858      -0.01372412
Pt       1.40360635       4.05186441      24.58417386        2       0.00000000       0.00003547      -0.00003355       0.03262639
Pt       4.21082088       4.05186391      24.58417389        2       0.00000000       0.00700396       0.01421527       0.03159425
Pt       7.01803505       4.05186405      24.58417404        2       0.00000000      -0.01138582       0.00495494       0.03416146
Pt       2.80721273       6.48298348      24.58417381        2       0.00000000       0.01017038       0.00715064       0.03431041
Pt       5.61442805       6.48298330      24.58417394        2       0.00000000       0.00000269      -0.00001245       0.04936873
Pt       8.42164222       6.48298341      24.58417373        2       0.00000000      -0.01584278      -0.00093234       0.03138445
Pt       0.00401187      -0.00124906      26.92578246        1       0.00000000      -0.01898972       0.01238985      -0.02766006
Pt       2.80412440      -0.00284625      26.92578275        1       0.00000000       0.02020707       0.01027346      -0.02764801
Pt       5.61521317       0.01094697      26.91484656        1       0.00000000      -0.00136489      -0.00837004      -0.00207707
Pt       1.40351706       2.39109181      26.91117234        1       0.00000000      -0.00026029      -0.02038771      -0.00994751
Pt       4.21991429       2.42496858      26.91485534        1       0.00000000      -0.00656294       0.00537144      -0.00204834
Pt       7.00816494       2.42632119      26.91485798        1       0.00000000       0.00793909       0.00299097      -0.00204098
Pt       2.84192341       4.88217612      26.91115994        1       0.00000000       0.01778224       0.00994499      -0.01000351
Pt       5.61350142       4.86633406      26.92578540        1       0.00000000      -0.00123861      -0.02262004      -0.02765041
Pt       8.38699776       4.88233934      26.91110654        1       0.00000000      -0.01765189       0.01047470      -0.01033367
O        9.82539293       4.05176477      29.28748987        0       0.50000000       0.00083875      -0.00055284       0.04484296
H        9.82513371       4.05194080      28.29387452        0       0.50000000      -0.00067291       0.00045214      -0.00768921
