38
Lattice="8.421641763931781 0.0 0.0 4.2108208819658905 7.293355709136913 0.0 0.0 0.0 46.87624170604845" Properties=species:S:1:pos:R:3:tags:I:1:initial_magmoms:R:1:forces:R:3 charge=0 spin=0 energy=-194.68953081662022 free_energy=-194.68953081662022 stress="0.009699009358882904 5.665480173888682e-08 -3.621348696469795e-07 5.665480173888682e-08 0.009699159301817417 3.568986528534879e-07 -3.621348696469795e-07 3.568986528534879e-07 -5.1373015594435856e-05" pbc="T T T"
Pt      -0.00000001       0.00000015      19.95723445        4       0.00000000      -0.00033970       0.00070191       0.01483420
Pt       2.80721394      -0.00000009      19.95723448        4       0.00000000       0.00075430      -0.00002112       0.01483007
Pt       5.61442781      -0.00000017      19.95723450        4       0.00000000      -0.00071447       0.00549395      -0.00049099
Pt       1.40360720       2.43111836      19.95723436        4       0.00000000       0.00091671      -0.00339381       0.01070447
Pt       4.21082078       2.43111836      19.95723446        4       0.00000000       0.00509134      -0.00212729      -0.00047483
Pt       7.01803484       2.43111844      19.95723431        4       0.00000000      -0.00436968      -0.00336430      -0.00047095
Pt       2.80721414       4.86223727      19.95723413        4       0.00000000       0.00249032       0.00249143       0.01072003
Pt       5.61442797       4.86223736      19.95723433        4       0.00000000      -0.00041584      -0.00068036       0.01486289
Pt       8.42164142       4.86223724      19.95723439        4       0.00000000      -0.00340910       0.00089619       0.01071454
Pt       1.40360727       0.81037261      22.29206790        3       0.00000000       0.00202984       0.00091765      -0.04076967
Pt       4.21082126       0.81037249      22.29206793        3       0.00000000      -0.00362170      -0.00124335       0.00132438
Pt       7.01803475       0.81037258      22.29206787        3       0.00000000       0.00289295      -0.00251410       0.00133592
Pt       2.80721449       3.24149123      22.29206778        3       0.00000000      -0.00540425       0.00279912      -0.04679511
Pt       5.61442761       3.24149123      22.29206789        3       0.00000000       0.00074127       0.00376443       0.00132334
Pt       8.42164155       3.24149130      22.29206812        3       0.00000000       0.00514325       0.00326986      -0.04675565
Pt       4.21082090       5.67260997      22.29206743        3       0.00000000      -0.00181831       0.00128019      -0.04075424
Pt       7.01803489       5.67261038      22.29206778        3       0.00000000      -0.00021576      -0.00219226      -0.04072217
Pt       9.82524818       5.67261058      22.29206804        3       0.00000000       0.00025814      -0.00607285      -0.04675293
Pt      -0.00000057       1.62074568      24.58417368        2       0.00000000       0.00888224      -0.01313206       0.03157884
Pt       2.80721445       1.62074549      24.58417387        2       0.00000000       0.00110084      -0.01218862       0.03429667
Pt       5.61442780       1.62074538      24.58417368        2       0.00000000      -0.00000484       0.00002905      -0.01372031
Pt       1.40360635       4.05186441      24.58417386        2       0.00000000       0.00003454      -0.00003400       0.03263137
Pt       4.21082088       4.05186391      24.58417389        2       0.00000000       0.00699488       0.01421362       0.03159073
Pt       7.01803505       4.05186405      24.58417404        2       0.00000000      -0.01137325       0.00495726       0.03416427
Pt       2.80721273       6.48298348      24.58417381        2       0.00000000       0.01016307       0.00714233       0.03430431
Pt       5.61442805       6.48298330      24.58417394        2       0.00000000       0.00000516      -0.00001352       0.04934794
Pt       8.42164222       6.48298341      24.58417373        2       0.00000000      -0.01583729      -0.00094487       0.03138852
Pt       0.00401091      -0.00124824      26.92577622        1       0.00000000      -0.01898481       0.01238606      -0.02762724
Pt       2.80412540      -0.00284536      26.92577733        1       0.00000000       0.02020204       0.01026791      -0.02762651
Pt       5.61521287       0.01094617      26.91484698        1       0.00000000      -0.00136296      -0.00836276      -0.00207580
Pt       1.40351703       2.39109631      26.91117853        1       0.00000000      -0.00026099      -0.02040582      -0.00995754
Pt       4.21991345       2.42496925      26.91485514        1       0.00000000      -0.00655319       0.00536936      -0.00204688
Pt       7.00816572       2.42632161      26.91485817        1       0.00000000       0.00792875       0.00298859      -0.00203943
Pt       2.84192016       4.88217438      26.91116411        1       0.00000000       0.01780547       0.00996004      -0.01003394
Pt       5.61350149       4.86633308      26.92577962        1       0.00000000      -0.00123827      -0.02261480      -0.02762904
Pt       8.38700174       4.88233739      26.91111260        1       0.00000000      -0.01767037       0.01048238      -0.01034639
O        9.82538740       4.05175954      29.28749928        0       0.50000000       0.00079637      -0.00057515       0.04489674
H        9.82513835       4.05194405      28.29388676        0       0.50000000      -0.00063659       0.00046952      -0.00775982
