38
Lattice="8.421641763931781 0.0 0.0 4.2108208819658905 7.293355709136913 0.0 0.0 0.0 46.87624170604845" Properties=species:S:1:pos:R:3:tags:I:1:initial_magmoms:R:1:forces:R:3 charge=0 spin=0 energy=-194.69028803402745 free_energy=-194.69028803402745 stress="0.009694721549749374 -4.490323490813353e-08 -1.8856363581676305e-08 -4.490323490813353e-08 0.009694606065750122 1.1214416062443888e-08 -1.8856363581676305e-08 1.1214416062443888e-08 -8.110295311780646e-05" pbc="T T T"
Pt      -0.00000001       0.00000015      19.95723445        4       0.00000000      -0.00033870       0.00059842       0.01470558
Pt       2.80721394      -0.00000009      19.95723448        4       0.00000000       0.00066548       0.00003017       0.01470023
Pt       5.61442781      -0.00000017      19.95723450        4       0.00000000      -0.00067346       0.00548812      -0.00029480
Pt       1.40360720       2.43111836      19.95723436        4       0.00000000       0.00086086      -0.00285199       0.01083949
Pt       4.21082078       2.43111836      19.95723446        4       0.00000000       0.00505879      -0.00215578      -0.00030988
Pt       7.01803484       2.43111844      19.95723431        4       0.00000000      -0.00438441      -0.00332037      -0.00028829
Pt       2.80721414       4.86223727      19.95723413        4       0.00000000       0.00205043       0.00216808       0.01085198
Pt       5.61442797       4.86223736      19.95723433        4       0.00000000      -0.00032832      -0.00062960       0.01473030
Pt       8.42164142       4.86223724      19.95723439        4       0.00000000      -0.00291167       0.00067548       0.01085016
Pt       1.40360727       0.81037261      22.29206790        3       0.00000000       0.00201062       0.00043266      -0.04138366
Pt       4.21082126       0.81037249      22.29206793        3       0.00000000      -0.00351792      -0.00092772      -0.00070393
Pt       7.01803475       0.81037258      22.29206787        3       0.00000000       0.00256974      -0.00257096      -0.00070674
Pt       2.80721449       3.24149123      22.29206778        3       0.00000000      -0.00471529       0.00249498      -0.04389814
Pt       5.61442761       3.24149123      22.29206789        3       0.00000000       0.00094729       0.00351536      -0.00069907
Pt       8.42164155       3.24149130      22.29206812        3       0.00000000       0.00453774       0.00282939      -0.04384495
Pt       4.21082090       5.67260997      22.29206743        3       0.00000000      -0.00139281       0.00151232      -0.04136356
Pt       7.01803489       5.67261038      22.29206778        3       0.00000000      -0.00063010      -0.00193742      -0.04132053
Pt       9.82524818       5.67261058      22.29206804        3       0.00000000       0.00018016      -0.00533103      -0.04383416
Pt      -0.00000057       1.62074568      24.58417368        2       0.00000000       0.01020070      -0.00489611       0.01907549
Pt       2.80721445       1.62074549      24.58417387        2       0.00000000      -0.00062525      -0.00412961       0.02233641
Pt       5.61442780       1.62074538      24.58417368        2       0.00000000       0.00000311       0.00002326      -0.01023719
Pt       1.40360635       4.05186441      24.58417386        2       0.00000000       0.00001133       0.00000646       0.04169249
Pt       4.21082088       4.05186391      24.58417389        2       0.00000000      -0.00090934       0.01131385       0.01927073
Pt       7.01803505       4.05186405      24.58417404        2       0.00000000      -0.00334115       0.00255838       0.02250194
Pt       2.80721273       6.48298348      24.58417381        2       0.00000000       0.00405576       0.00154284       0.02242316
Pt       5.61442805       6.48298330      24.58417394        2       0.00000000      -0.00000471       0.00000743       0.03884353
Pt       8.42164222       6.48298341      24.58417373        2       0.00000000      -0.00937918      -0.00644715       0.01919065
Pt       0.00048467       0.00096572      26.92008413        1       0.00000000       0.00484535      -0.00274764      -0.00385866
Pt       2.80781022      -0.00090268      26.92008284        1       0.00000000      -0.00478354      -0.00285700      -0.00385306
Pt       5.61504799       0.00911797      26.91459372        1       0.00000000      -0.00044761       0.00090298       0.00245864
Pt       1.40346427       2.39118534      26.91254407        1       0.00000000       0.00027060      -0.00048976      -0.00394630
Pt       4.21840829       2.42602816      26.91460880        1       0.00000000       0.00099831      -0.00007320       0.00224770
Pt       7.00983288       2.42709255      26.91460952        1       0.00000000      -0.00056018      -0.00084910       0.00223835
Pt       2.84185001       4.88207353      26.91256759        1       0.00000000       0.00020241       0.00044300      -0.00374560
Pt       5.61334766       4.86216910      26.92008070        1       0.00000000      -0.00004708       0.00557049      -0.00408648
Pt       8.38714244       4.88231342      26.91256666        1       0.00000000      -0.00048013      -0.00002955      -0.00375627
O        9.82525256       4.05197633      29.30750760        0       0.50000000       0.00002105       0.00062392       0.01969511
H        9.82524519       4.05177063      28.31416498        0       0.50000000      -0.00001879      -0.00049368      -0.01652099
