38
Lattice="8.421641763931781 0.0 0.0 4.2108208819658905 7.293355709136913 0.0 0.0 0.0 46.87624170604845" Properties=species:S:1:pos:R:3:tags:I:1:initial_magmoms:R:1:forces:R:3 charge=0 spin=0 energy=-194.68892237240635 free_energy=-194.68892237240635 stress="0.009775785729289055 3.7279512810073356e-08 4.317989166224834e-08 3.7279512810073356e-08 0.009775776416063309 1.37264748900634e-07 4.317989166224834e-08 1.37264748900634e-07 5.0308826757827774e-05" pbc="T T T"
Pt      -0.00000001       0.00000015      19.95723445        4       0.00000000       0.00014636       0.00039584       0.01475465
Pt       2.80721394      -0.00000009      19.95723448        4       0.00000000       0.00024343      -0.00028718       0.01474697
Pt       5.61442781      -0.00000017      19.95723450        4       0.00000000      -0.00058525       0.00533905      -0.00014688
Pt       1.40360720       2.43111836      19.95723436        4       0.00000000       0.00091996      -0.00231280       0.01103432
Pt       4.21082078       2.43111836      19.95723446        4       0.00000000       0.00489345      -0.00216883      -0.00012714
Pt       7.01803484       2.43111844      19.95723431        4       0.00000000      -0.00430028      -0.00318115      -0.00010312
Pt       2.80721414       4.86223727      19.95723413        4       0.00000000       0.00154336       0.00195116       0.01103600
Pt       5.61442797       4.86223736      19.95723433        4       0.00000000      -0.00039271      -0.00009480       0.01477456
Pt       8.42164142       4.86223724      19.95723439        4       0.00000000      -0.00246710       0.00035353       0.01103282
Pt       1.40360727       0.81037261      22.29206790        3       0.00000000       0.00216354       0.00088247      -0.03909241
Pt       4.21082126       0.81037249      22.29206793        3       0.00000000      -0.00270162      -0.00022465      -0.00461938
Pt       7.01803475       0.81037258      22.29206787        3       0.00000000       0.00153380      -0.00227782      -0.00457815
Pt       2.80721449       3.24149123      22.29206778        3       0.00000000      -0.00428579       0.00231342      -0.04262127
Pt       5.61442761       3.24149123      22.29206789        3       0.00000000       0.00118591       0.00248110      -0.00466365
Pt       8.42164155       3.24149130      22.29206812        3       0.00000000       0.00414521       0.00259584      -0.04256066
Pt       4.21082090       5.67260997      22.29206743        3       0.00000000      -0.00186433       0.00138165      -0.03923353
Pt       7.01803489       5.67261038      22.29206778        3       0.00000000      -0.00029387      -0.00228621      -0.03920464
Pt       9.82524818       5.67261058      22.29206804        3       0.00000000       0.00013420      -0.00486301      -0.04268036
Pt      -0.00000057       1.62074568      24.58417368        2       0.00000000       0.02120627      -0.00303395       0.02826183
Pt       2.80721445       1.62074549      24.58417387        2       0.00000000      -0.01351000      -0.00468225       0.03162624
Pt       5.61442780       1.62074538      24.58417368        2       0.00000000       0.00006043      -0.00010273       0.00391024
Pt       1.40360635       4.05186441      24.58417386        2       0.00000000       0.00000675      -0.00030265       0.07657005
Pt       4.21082088       4.05186391      24.58417389        2       0.00000000      -0.00799290       0.01949915       0.02722879
Pt       7.01803505       4.05186405      24.58417404        2       0.00000000       0.00253899       0.01339399       0.03081438
Pt       2.80721273       6.48298348      24.58417381        2       0.00000000       0.01087260      -0.00867852       0.03137944
Pt       5.61442805       6.48298330      24.58417394        2       0.00000000      -0.00005562       0.00039484       0.06580766
Pt       8.42164222       6.48298341      24.58417373        2       0.00000000      -0.01312505      -0.01644998       0.02776654
Pt      -0.00246763       0.00439582      26.92214346        1       0.00000000       0.02893864      -0.02652543      -0.01803222
Pt       2.81228607      -0.00000531      26.92208718        1       0.00000000      -0.03769021      -0.01190108      -0.01774749
Pt       5.61641434       0.00322743      26.91290651        1       0.00000000      -0.00541847       0.03773800       0.00897097
Pt       1.40306121       2.39106658      26.92063732        1       0.00000000       0.00306733       0.01209468      -0.03254792
Pt       4.21259998       2.42777061      26.91279244        1       0.00000000       0.03540885      -0.01416778       0.00945930
Pt       7.01422172       2.43117873      26.91286219        1       0.00000000      -0.02976249      -0.02362096       0.00915990
Pt       2.84214847       4.88186119      26.92035285        1       0.00000000      -0.01204576      -0.00357719      -0.03172036
Pt       5.61191054       4.85786011      26.92178544        1       0.00000000       0.00831266       0.03864837      -0.01650146
Pt       8.38719904       4.88269870      26.92036611        1       0.00000000       0.00915654      -0.00871442      -0.03173144
O        9.82524741       4.05177993      29.32965328        0       0.50000000      -0.00004482      -0.00079489      -0.02407542
H        9.82525697       4.05195585      28.33578679        0       0.50000000       0.00005782       0.00078552       0.00365287
