38
Lattice="8.421641763931781 0.0 0.0 4.2108208819658905 7.293355709136913 0.0 0.0 0.0 46.87624170604845" Properties=species:S:1:pos:R:3:tags:I:1:initial_magmoms:R:1:forces:R:3 charge=0 spin=0 energy=-194.68892237240635 free_energy=-194.68892237240635 stress="0.009775764308869839 3.504436207890649e-08 4.3438056707145734e-08 3.504436207890649e-08 0.009775752201676369 1.379178939941994e-07 4.3438056707145734e-08 1.379178939941994e-07 5.0338407163508236e-05" pbc="T T T"
Pt      -0.00000001       0.00000015      19.95723445        4       0.00000000       0.00014643       0.00039592       0.01475473
Pt       2.80721394      -0.00000009      19.95723448        4       0.00000000       0.00024338      -0.00028708       0.01474710
Pt       5.61442781      -0.00000017      19.95723450        4       0.00000000      -0.00058542       0.00533909      -0.00014699
Pt       1.40360720       2.43111836      19.95723436        4       0.00000000       0.00091995      -0.00231284       0.01103447
Pt       4.21082078       2.43111836      19.95723446        4       0.00000000       0.00489346      -0.00216888      -0.00012723
Pt       7.01803484       2.43111844      19.95723431        4       0.00000000      -0.00430040      -0.00318129      -0.00010316
Pt       2.80721414       4.86223727      19.95723413        4       0.00000000       0.00154361       0.00195118       0.01103568
Pt       5.61442797       4.86223736      19.95723433        4       0.00000000      -0.00039274      -0.00009487       0.01477451
Pt       8.42164142       4.86223724      19.95723439        4       0.00000000      -0.00246724       0.00035355       0.01103279
Pt       1.40360727       0.81037261      22.29206790        3       0.00000000       0.00216351       0.00088241      -0.03909265
Pt       4.21082126       0.81037249      22.29206793        3       0.00000000      -0.00270144      -0.00022506      -0.00461931
Pt       7.01803475       0.81037258      22.29206787        3       0.00000000       0.00153388      -0.00227791      -0.00457722
Pt       2.80721449       3.24149123      22.29206778        3       0.00000000      -0.00428586       0.00231341      -0.04262184
Pt       5.61442761       3.24149123      22.29206789        3       0.00000000       0.00118619       0.00248110      -0.00466319
Pt       8.42164155       3.24149130      22.29206812        3       0.00000000       0.00414560       0.00259620      -0.04256075
Pt       4.21082090       5.67260997      22.29206743        3       0.00000000      -0.00186399       0.00138196      -0.03923341
Pt       7.01803489       5.67261038      22.29206778        3       0.00000000      -0.00029391      -0.00228614      -0.03920482
Pt       9.82524818       5.67261058      22.29206804        3       0.00000000       0.00013397      -0.00486294      -0.04268127
Pt      -0.00000057       1.62074568      24.58417368        2       0.00000000       0.02120681      -0.00303333       0.02826363
Pt       2.80721445       1.62074549      24.58417387        2       0.00000000      -0.01350967      -0.00468174       0.03162653
Pt       5.61442780       1.62074538      24.58417368        2       0.00000000       0.00006049      -0.00010284       0.00390918
Pt       1.40360635       4.05186441      24.58417386        2       0.00000000       0.00000649      -0.00030468       0.07656475
Pt       4.21082088       4.05186391      24.58417389        2       0.00000000      -0.00799171       0.01949839       0.02722661
Pt       7.01803505       4.05186405      24.58417404        2       0.00000000       0.00253680       0.01339276       0.03081055
Pt       2.80721273       6.48298348      24.58417381        2       0.00000000       0.01087186      -0.00867667       0.03137689
Pt       5.61442805       6.48298330      24.58417394        2       0.00000000      -0.00005589       0.00039473       0.06580601
Pt       8.42164222       6.48298341      24.58417373        2       0.00000000      -0.01312460      -0.01644779       0.02776451
Pt      -0.00246752       0.00439569      26.92214375        1       0.00000000       0.02894166      -0.02652406      -0.01802983
Pt       2.81228593      -0.00000539      26.92208733        1       0.00000000      -0.03768744      -0.01190022      -0.01774683
Pt       5.61641457       0.00322758      26.91290623        1       0.00000000      -0.00541922       0.03773922       0.00896938
Pt       1.40306124       2.39106594      26.92063674        1       0.00000000       0.00306689       0.01209136      -0.03255152
Pt       4.21260003       2.42777054      26.91279258        1       0.00000000       0.03540448      -0.01416969       0.00945829
Pt       7.01422154       2.43117858      26.91286206        1       0.00000000      -0.02976366      -0.02362112       0.00915958
Pt       2.84214908       4.88186167      26.92035182        1       0.00000000      -0.01204466      -0.00357749      -0.03171355
Pt       5.61191047       4.85786032      26.92178578        1       0.00000000       0.00831220       0.03864715      -0.01650087
Pt       8.38719833       4.88269900      26.92036529        1       0.00000000       0.00915660      -0.00871296      -0.03172589
O        9.82524767       4.05177999      29.32964447        0       0.50000000      -0.00004224      -0.00079584      -0.02420842
H        9.82525675       4.05195575      28.33577619        0       0.50000000       0.00005557       0.00078724       0.00379329
