38
Lattice="8.421641763931781 0.0 0.0 4.2108208819658905 7.293355709136913 0.0 0.0 0.0 46.87624170604845" Properties=species:S:1:pos:R:3:tags:I:1:initial_magmoms:R:1:forces:R:3 charge=0 spin=0 energy=-194.6902556091007 free_energy=-194.6902556091007 stress="0.00966297835111618 -9.705137138382725e-09 1.8874904128551862e-07 -9.705137138382725e-09 0.00966322235763073 4.001179263468657e-07 1.8874904128551862e-07 4.001179263468657e-07 -0.00012533624249044806" pbc="T T T"
Pt      -0.00000001       0.00000015      19.95723445        4       0.00000000      -0.00037980       0.00066614       0.01465452
Pt       2.80721394      -0.00000009      19.95723448        4       0.00000000       0.00074852       0.00002969       0.01465045
Pt       5.61442781      -0.00000017      19.95723450        4       0.00000000      -0.00072921       0.00548760      -0.00030326
Pt       1.40360720       2.43111836      19.95723436        4       0.00000000       0.00079498      -0.00292824       0.01080667
Pt       4.21082078       2.43111836      19.95723446        4       0.00000000       0.00509182      -0.00210969      -0.00030276
Pt       7.01803484       2.43111844      19.95723431        4       0.00000000      -0.00436529      -0.00337201      -0.00027163
Pt       2.80721414       4.86223727      19.95723413        4       0.00000000       0.00214889       0.00214851       0.01081681
Pt       5.61442797       4.86223736      19.95723433        4       0.00000000      -0.00036843      -0.00069868       0.01468153
Pt       8.42164142       4.86223724      19.95723439        4       0.00000000      -0.00294269       0.00077021       0.01081681
Pt       1.40360727       0.81037261      22.29206790        3       0.00000000       0.00194459       0.00034393      -0.04153644
Pt       4.21082126       0.81037249      22.29206793        3       0.00000000      -0.00354523      -0.00094494      -0.00034563
Pt       7.01803475       0.81037258      22.29206787        3       0.00000000       0.00259629      -0.00259379      -0.00036016
Pt       2.80721449       3.24149123      22.29206778        3       0.00000000      -0.00467392       0.00250438      -0.04379336
Pt       5.61442761       3.24149123      22.29206789        3       0.00000000       0.00094637       0.00354574      -0.00035362
Pt       8.42164155       3.24149130      22.29206812        3       0.00000000       0.00453374       0.00278013      -0.04373299
Pt       4.21082090       5.67260997      22.29206743        3       0.00000000      -0.00127934       0.00149367      -0.04152112
Pt       7.01803489       5.67261038      22.29206778        3       0.00000000      -0.00067149      -0.00183556      -0.04146567
Pt       9.82524818       5.67261058      22.29206804        3       0.00000000       0.00014590      -0.00530115      -0.04372599
Pt      -0.00000057       1.62074568      24.58417368        2       0.00000000       0.00893088      -0.00354171       0.01372391
Pt       2.80721445       1.62074549      24.58417387        2       0.00000000       0.00079404      -0.00242542       0.01406620
Pt       5.61442780       1.62074538      24.58417368        2       0.00000000       0.00000269       0.00001853      -0.01665947
Pt       1.40360635       4.05186441      24.58417386        2       0.00000000      -0.00000650       0.00003665       0.03614079
Pt       4.21082088       4.05186391      24.58417389        2       0.00000000      -0.00122424       0.00949605       0.01380998
Pt       7.01803505       4.05186405      24.58417404        2       0.00000000      -0.00275449       0.00047509       0.01415304
Pt       2.80721273       6.48298348      24.58417381        2       0.00000000       0.00186115       0.00205480       0.01402154
Pt       5.61442805       6.48298330      24.58417394        2       0.00000000      -0.00000740      -0.00007854       0.02356293
Pt       8.42164222       6.48298341      24.58417373        2       0.00000000      -0.00757889      -0.00595531       0.01384073
Pt       0.00109111      -0.00020848      26.91790610        1       0.00000000      -0.00114299       0.00727134       0.00822050
Pt       2.80646287      -0.00080081      26.91790697        1       0.00000000       0.00703429      -0.00289665       0.00819726
Pt       5.61537077       0.00981469      26.91385858        1       0.00000000      -0.00311323      -0.00401262       0.00609867
Pt       1.40403229       2.39105221      26.91114469        1       0.00000000      -0.00418774       0.00414033       0.00451882
Pt       4.21886332       2.42540013      26.91386546        1       0.00000000      -0.00188297       0.00469725       0.00594653
Pt       7.00905918       2.42702970      26.91386082        1       0.00000000       0.00496121      -0.00073372       0.00597698
Pt       2.84174594       4.88264085      26.91112677        1       0.00000000      -0.00151597      -0.00538103       0.00381085
Pt       5.61408209       4.86330566      26.91796967        1       0.00000000      -0.00573444      -0.00465504       0.00750721
Pt       8.38668502       4.88190050      26.91115010        1       0.00000000       0.00565987       0.00160005       0.00399961
O        9.82518126       4.05175084      29.30710039        0       0.50000000      -0.00040243      -0.00057191      -0.00609922
H        9.82531504       4.05194627      28.31312527        0       0.50000000       0.00031168       0.00047593       0.00644858
