38
Lattice="8.421641763931781 0.0 0.0 4.2108208819658905 7.293355709136913 0.0 0.0 0.0 46.87624170604845" Properties=species:S:1:pos:R:3:tags:I:1:initial_magmoms:R:1:forces:R:3 charge=0 spin=0 energy=-194.69025751644932 free_energy=-194.69025751644932 stress="0.009662959724664688 -7.179316252603485e-09 1.8745541296993906e-07 -7.179316252603485e-09 0.00966321025043726 4.070910506470682e-07 1.8745541296993906e-07 4.070910506470682e-07 -0.00012532591063063592" pbc="T T T"
Pt      -0.00000001       0.00000015      19.95723445        4       0.00000000      -0.00037989       0.00066597       0.01465452
Pt       2.80721394      -0.00000009      19.95723448        4       0.00000000       0.00074858       0.00002959       0.01465036
Pt       5.61442781      -0.00000017      19.95723450        4       0.00000000      -0.00072932       0.00548778      -0.00030377
Pt       1.40360720       2.43111836      19.95723436        4       0.00000000       0.00079489      -0.00292856       0.01080648
Pt       4.21082078       2.43111836      19.95723446        4       0.00000000       0.00509215      -0.00211005      -0.00030261
Pt       7.01803484       2.43111844      19.95723431        4       0.00000000      -0.00436544      -0.00337215      -0.00027184
Pt       2.80721414       4.86223727      19.95723413        4       0.00000000       0.00214916       0.00214887       0.01081679
Pt       5.61442797       4.86223736      19.95723433        4       0.00000000      -0.00036854      -0.00069862       0.01468168
Pt       8.42164142       4.86223724      19.95723439        4       0.00000000      -0.00294278       0.00077038       0.01081659
Pt       1.40360727       0.81037261      22.29206790        3       0.00000000       0.00194472       0.00034395      -0.04153701
Pt       4.21082126       0.81037249      22.29206793        3       0.00000000      -0.00354549      -0.00094518      -0.00034532
Pt       7.01803475       0.81037258      22.29206787        3       0.00000000       0.00259651      -0.00259390      -0.00035998
Pt       2.80721449       3.24149123      22.29206778        3       0.00000000      -0.00467424       0.00250470      -0.04379400
Pt       5.61442761       3.24149123      22.29206789        3       0.00000000       0.00094637       0.00354625      -0.00035268
Pt       8.42164155       3.24149130      22.29206812        3       0.00000000       0.00453398       0.00278043      -0.04373355
Pt       4.21082090       5.67260997      22.29206743        3       0.00000000      -0.00127957       0.00149342      -0.04152124
Pt       7.01803489       5.67261038      22.29206778        3       0.00000000      -0.00067132      -0.00183536      -0.04146609
Pt       9.82524818       5.67261058      22.29206804        3       0.00000000       0.00014562      -0.00530168      -0.04372672
Pt      -0.00000057       1.62074568      24.58417368        2       0.00000000       0.00892952      -0.00353942       0.01372969
Pt       2.80721445       1.62074549      24.58417387        2       0.00000000       0.00079360      -0.00242533       0.01406581
Pt       5.61442780       1.62074538      24.58417368        2       0.00000000       0.00000516       0.00002031      -0.01665951
Pt       1.40360635       4.05186441      24.58417386        2       0.00000000      -0.00000698       0.00003445       0.03613968
Pt       4.21082088       4.05186391      24.58417389        2       0.00000000      -0.00122010       0.00949591       0.01380902
Pt       7.01803505       4.05186405      24.58417404        2       0.00000000      -0.00275846       0.00047130       0.01415532
Pt       2.80721273       6.48298348      24.58417381        2       0.00000000       0.00186089       0.00205711       0.01401852
Pt       5.61442805       6.48298330      24.58417394        2       0.00000000      -0.00000758      -0.00008078       0.02356357
Pt       8.42164222       6.48298341      24.58417373        2       0.00000000      -0.00757856      -0.00595195       0.01383691
Pt       0.00109124      -0.00020870      26.91790641        1       0.00000000      -0.00114283       0.00727536       0.00822243
Pt       2.80646258      -0.00080082      26.91790701        1       0.00000000       0.00703596      -0.00289360       0.00819724
Pt       5.61537051       0.00981551      26.91385787        1       0.00000000      -0.00311278      -0.00401598       0.00609846
Pt       1.40403305       2.39105099      26.91114392        1       0.00000000      -0.00419405       0.00414569       0.00451901
Pt       4.21886399       2.42539965      26.91386517        1       0.00000000      -0.00188378       0.00470076       0.00594761
Pt       7.00905824       2.42702907      26.91386141        1       0.00000000       0.00496548      -0.00073043       0.00596958
Pt       2.84174731       4.88264161      26.91112502        1       0.00000000      -0.00152166      -0.00538521       0.00381767
Pt       5.61408209       4.86330618      26.91796998        1       0.00000000      -0.00573487      -0.00465932       0.00750004
Pt       8.38668356       4.88190171      26.91114865        1       0.00000000       0.00566522       0.00159234       0.00400247
O        9.82518188       4.05174873      29.30709317        0       0.50000000      -0.00039725      -0.00058438      -0.00616419
H        9.82531451       4.05194760      28.31311639        0       0.50000000       0.00030753       0.00048729       0.00651907
