38
Lattice="8.421641763931781 0.0 0.0 4.2108208819658905 7.293355709136913 0.0 0.0 0.0 46.87624170604845" Properties=species:S:1:pos:R:3:tags:I:1:initial_magmoms:R:1:forces:R:3 charge=0 spin=0 energy=-194.6902861266788 free_energy=-194.6902861266788 stress="0.009694735519587994 -4.957421850804167e-08 7.815302183189488e-09 -4.957421850804167e-08 0.009694628417491913 2.8893092363091455e-08 7.815302183189488e-09 2.8893092363091455e-08 -8.108397014439106e-05" pbc="T T T"
Pt      -0.00000001       0.00000015      19.95723445        4       0.00000000      -0.00033892       0.00059835       0.01470558
Pt       2.80721394      -0.00000009      19.95723448        4       0.00000000       0.00066572       0.00003027       0.01470026
Pt       5.61442781      -0.00000017      19.95723450        4       0.00000000      -0.00067369       0.00548807      -0.00029519
Pt       1.40360720       2.43111836      19.95723436        4       0.00000000       0.00086095      -0.00285200       0.01083937
Pt       4.21082078       2.43111836      19.95723446        4       0.00000000       0.00505862      -0.00215585      -0.00031026
Pt       7.01803484       2.43111844      19.95723431        4       0.00000000      -0.00438464      -0.00332052      -0.00028747
Pt       2.80721414       4.86223727      19.95723413        4       0.00000000       0.00205038       0.00216807       0.01085207
Pt       5.61442797       4.86223736      19.95723433        4       0.00000000      -0.00032821      -0.00062963       0.01473026
Pt       8.42164142       4.86223724      19.95723439        4       0.00000000      -0.00291145       0.00067558       0.01085033
Pt       1.40360727       0.81037261      22.29206790        3       0.00000000       0.00201093       0.00043273      -0.04138316
Pt       4.21082126       0.81037249      22.29206793        3       0.00000000      -0.00351813      -0.00092773      -0.00070301
Pt       7.01803475       0.81037258      22.29206787        3       0.00000000       0.00256961      -0.00257115      -0.00070731
Pt       2.80721449       3.24149123      22.29206778        3       0.00000000      -0.00471516       0.00249483      -0.04389858
Pt       5.61442761       3.24149123      22.29206789        3       0.00000000       0.00094688       0.00351512      -0.00069978
Pt       8.42164155       3.24149130      22.29206812        3       0.00000000       0.00453806       0.00282919      -0.04384446
Pt       4.21082090       5.67260997      22.29206743        3       0.00000000      -0.00139272       0.00151224      -0.04136400
Pt       7.01803489       5.67261038      22.29206778        3       0.00000000      -0.00063026      -0.00193755      -0.04131981
Pt       9.82524818       5.67261058      22.29206804        3       0.00000000       0.00018018      -0.00533083      -0.04383441
Pt      -0.00000057       1.62074568      24.58417368        2       0.00000000       0.01020351      -0.00489467       0.01908043
Pt       2.80721445       1.62074549      24.58417387        2       0.00000000      -0.00062927      -0.00412773       0.02234361
Pt       5.61442780       1.62074538      24.58417368        2       0.00000000       0.00000337       0.00002380      -0.01023749
Pt       1.40360635       4.05186441      24.58417386        2       0.00000000       0.00000888       0.00000518       0.04169421
Pt       4.21082088       4.05186391      24.58417389        2       0.00000000      -0.00090306       0.01131245       0.01926907
Pt       7.01803505       4.05186405      24.58417404        2       0.00000000      -0.00334062       0.00256153       0.02250837
Pt       2.80721273       6.48298348      24.58417381        2       0.00000000       0.00405551       0.00154735       0.02241808
Pt       5.61442805       6.48298330      24.58417394        2       0.00000000      -0.00000572       0.00000465       0.03884821
Pt       8.42164222       6.48298341      24.58417373        2       0.00000000      -0.00937984      -0.00645215       0.01919772
Pt       0.00048513       0.00096593      26.92008421        1       0.00000000       0.00484825      -0.00274869      -0.00386000
Pt       2.80781021      -0.00090311      26.92008285        1       0.00000000      -0.00478534      -0.00285543      -0.00385468
Pt       5.61504792       0.00911808      26.91459373        1       0.00000000      -0.00044710       0.00090200       0.00245932
Pt       1.40346401       2.39118648      26.91254576        1       0.00000000       0.00027016      -0.00049091      -0.00394999
Pt       4.21840835       2.42602807      26.91460884        1       0.00000000       0.00099351      -0.00006960       0.00224628
Pt       7.00983249       2.42709245      26.91460961        1       0.00000000      -0.00055813      -0.00084813       0.00223852
Pt       2.84185033       4.88207394      26.91256506        1       0.00000000       0.00021529       0.00044748      -0.00376435
Pt       5.61334814       4.86216939      26.92008120        1       0.00000000      -0.00004817       0.00557244      -0.00409055
Pt       8.38714302       4.88231311      26.91256828        1       0.00000000      -0.00048016      -0.00003370      -0.00375058
O        9.82524234       4.05197081      29.30751007        0       0.50000000      -0.00003671       0.00059459       0.01969409
H        9.82525367       4.05177512      28.31416616        0       0.50000000       0.00002746      -0.00046981      -0.01652073
