38
Lattice="8.421641763931781 0.0 0.0 4.2108208819658905 7.293355709136913 0.0 0.0 0.0 46.87624170604845" Properties=species:S:1:pos:R:3:tags:I:1:initial_magmoms:R:1:forces:R:3 charge=0 spin=0 energy=-194.69028803402745 free_energy=-194.69028803402745 stress="0.009694725275039673 -5.347514431264244e-08 1.9538347828529368e-08 -5.347514431264244e-08 0.009694607928395271 2.3935349702242092e-08 1.9538347828529368e-08 2.3935349702242092e-08 -8.11062564025633e-05" pbc="T T T"
Pt      -0.00000001       0.00000015      19.95723445        4       0.00000000      -0.00033878       0.00059829       0.01470566
Pt       2.80721394      -0.00000009      19.95723448        4       0.00000000       0.00066571       0.00003031       0.01470013
Pt       5.61442781      -0.00000017      19.95723450        4       0.00000000      -0.00067375       0.00548788      -0.00029508
Pt       1.40360720       2.43111836      19.95723436        4       0.00000000       0.00086101      -0.00285218       0.01083954
Pt       4.21082078       2.43111836      19.95723446        4       0.00000000       0.00505858      -0.00215579      -0.00031058
Pt       7.01803484       2.43111844      19.95723431        4       0.00000000      -0.00438484      -0.00332062      -0.00028719
Pt       2.80721414       4.86223727      19.95723413        4       0.00000000       0.00205027       0.00216805       0.01085196
Pt       5.61442797       4.86223736      19.95723433        4       0.00000000      -0.00032830      -0.00062967       0.01473026
Pt       8.42164142       4.86223724      19.95723439        4       0.00000000      -0.00291148       0.00067576       0.01085048
Pt       1.40360727       0.81037261      22.29206790        3       0.00000000       0.00201088       0.00043270      -0.04138307
Pt       4.21082126       0.81037249      22.29206793        3       0.00000000      -0.00351805      -0.00092776      -0.00070275
Pt       7.01803475       0.81037258      22.29206787        3       0.00000000       0.00256962      -0.00257120      -0.00070790
Pt       2.80721449       3.24149123      22.29206778        3       0.00000000      -0.00471507       0.00249497      -0.04389877
Pt       5.61442761       3.24149123      22.29206789        3       0.00000000       0.00094651       0.00351518      -0.00069962
Pt       8.42164155       3.24149130      22.29206812        3       0.00000000       0.00453780       0.00282941      -0.04384415
Pt       4.21082090       5.67260997      22.29206743        3       0.00000000      -0.00139255       0.00151209      -0.04136466
Pt       7.01803489       5.67261038      22.29206778        3       0.00000000      -0.00063037      -0.00193753      -0.04131986
Pt       9.82524818       5.67261058      22.29206804        3       0.00000000       0.00018024      -0.00533062      -0.04383486
Pt      -0.00000057       1.62074568      24.58417368        2       0.00000000       0.01020368      -0.00489437       0.01908021
Pt       2.80721445       1.62074549      24.58417387        2       0.00000000      -0.00063007      -0.00412747       0.02234439
Pt       5.61442780       1.62074538      24.58417368        2       0.00000000       0.00000383       0.00002346      -0.01023791
Pt       1.40360635       4.05186441      24.58417386        2       0.00000000       0.00000747       0.00000408       0.04169288
Pt       4.21082088       4.05186391      24.58417389        2       0.00000000      -0.00090172       0.01130920       0.01925967
Pt       7.01803505       4.05186405      24.58417404        2       0.00000000      -0.00333740       0.00256057       0.02250713
Pt       2.80721273       6.48298348      24.58417381        2       0.00000000       0.00405465       0.00155166       0.02241107
Pt       5.61442805       6.48298330      24.58417394        2       0.00000000      -0.00000546       0.00000738       0.03884413
Pt       8.42164222       6.48298341      24.58417373        2       0.00000000      -0.00937992      -0.00645326       0.01919900
Pt       0.00048503       0.00096574      26.92008385        1       0.00000000       0.00484920      -0.00274413      -0.00385820
Pt       2.80781034      -0.00090303      26.92008259        1       0.00000000      -0.00478424      -0.00285405      -0.00385461
Pt       5.61504793       0.00911814      26.91459383        1       0.00000000      -0.00044752       0.00090330       0.00245964
Pt       1.40346420       2.39118613      26.91254599        1       0.00000000       0.00026784      -0.00049129      -0.00394471
Pt       4.21840845       2.42602815      26.91460886        1       0.00000000       0.00099405      -0.00007228       0.00224707
Pt       7.00983218       2.42709244      26.91460956        1       0.00000000      -0.00055640      -0.00084915       0.00223803
Pt       2.84185130       4.88207446      26.91256399        1       0.00000000       0.00021139       0.00044593      -0.00376191
Pt       5.61334811       4.86216926      26.92008110        1       0.00000000      -0.00004620       0.00557186      -0.00408682
Pt       8.38714290       4.88231320      26.91256913        1       0.00000000      -0.00047650      -0.00003558      -0.00374265
O        9.82523815       4.05197098      29.30750913        0       0.50000000      -0.00006174       0.00059310       0.01969486
H        9.82525742       4.05177506      28.31416517        0       0.50000000       0.00004745      -0.00046836      -0.01652052
