38
Lattice="8.421641763931781 0.0 0.0 4.2108208819658905 7.293355709136913 0.0 0.0 0.0 46.87624170604845" Properties=species:S:1:pos:R:3:tags:I:1:initial_magmoms:R:1:forces:R:3 charge=0 spin=0 energy=-194.69025370175206 free_energy=-194.69025370175206 stress="0.009662962518632412 -6.631575288906788e-09 1.8331903106627578e-07 -6.631575288906788e-09 0.009663211181759834 4.1128657812805614e-07 1.8331903106627578e-07 4.1128657812805614e-07 -0.00012531924585346133" pbc="T T T"
Pt      -0.00000001       0.00000015      19.95723445        4       0.00000000      -0.00037984       0.00066605       0.01465458
Pt       2.80721394      -0.00000009      19.95723448        4       0.00000000       0.00074861       0.00002972       0.01465053
Pt       5.61442781      -0.00000017      19.95723450        4       0.00000000      -0.00072931       0.00548771      -0.00030358
Pt       1.40360720       2.43111836      19.95723436        4       0.00000000       0.00079486      -0.00292854       0.01080663
Pt       4.21082078       2.43111836      19.95723446        4       0.00000000       0.00509197      -0.00211007      -0.00030263
Pt       7.01803484       2.43111844      19.95723431        4       0.00000000      -0.00436535      -0.00337203      -0.00027195
Pt       2.80721414       4.86223727      19.95723413        4       0.00000000       0.00214889       0.00214885       0.01081659
Pt       5.61442797       4.86223736      19.95723433        4       0.00000000      -0.00036850      -0.00069856       0.01468160
Pt       8.42164142       4.86223724      19.95723439        4       0.00000000      -0.00294267       0.00077036       0.01081689
Pt       1.40360727       0.81037261      22.29206790        3       0.00000000       0.00194457       0.00034381      -0.04153630
Pt       4.21082126       0.81037249      22.29206793        3       0.00000000      -0.00354516      -0.00094524      -0.00034603
Pt       7.01803475       0.81037258      22.29206787        3       0.00000000       0.00259631      -0.00259403      -0.00035977
Pt       2.80721449       3.24149123      22.29206778        3       0.00000000      -0.00467388       0.00250451      -0.04379394
Pt       5.61442761       3.24149123      22.29206789        3       0.00000000       0.00094661       0.00354589      -0.00035364
Pt       8.42164155       3.24149130      22.29206812        3       0.00000000       0.00453365       0.00278026      -0.04373324
Pt       4.21082090       5.67260997      22.29206743        3       0.00000000      -0.00127945       0.00149339      -0.04152115
Pt       7.01803489       5.67261038      22.29206778        3       0.00000000      -0.00067113      -0.00183564      -0.04146549
Pt       9.82524818       5.67261058      22.29206804        3       0.00000000       0.00014577      -0.00530124      -0.04372644
Pt      -0.00000057       1.62074568      24.58417368        2       0.00000000       0.00893455      -0.00353955       0.01372958
Pt       2.80721445       1.62074549      24.58417387        2       0.00000000       0.00079051      -0.00242369       0.01407104
Pt       5.61442780       1.62074538      24.58417368        2       0.00000000       0.00000258       0.00001900      -0.01666134
Pt       1.40360635       4.05186441      24.58417386        2       0.00000000      -0.00000721       0.00003472       0.03614422
Pt       4.21082088       4.05186391      24.58417389        2       0.00000000      -0.00122438       0.00949619       0.01381026
Pt       7.01803505       4.05186405      24.58417404        2       0.00000000      -0.00275417       0.00047423       0.01415319
Pt       2.80721273       6.48298348      24.58417381        2       0.00000000       0.00186104       0.00205353       0.01402349
Pt       5.61442805       6.48298330      24.58417394        2       0.00000000      -0.00000730      -0.00007779       0.02356161
Pt       8.42164222       6.48298341      24.58417373        2       0.00000000      -0.00757854      -0.00595528       0.01384045
Pt       0.00109113      -0.00020852      26.91790598        1       0.00000000      -0.00114406       0.00727264       0.00821891
Pt       2.80646297      -0.00080088      26.91790734        1       0.00000000       0.00703583      -0.00289420       0.00819552
Pt       5.61537074       0.00981514      26.91385839        1       0.00000000      -0.00311280      -0.00401585       0.00609795
Pt       1.40403250       2.39105131      26.91114549        1       0.00000000      -0.00418888       0.00413980       0.00450845
Pt       4.21886344       2.42539966      26.91386516        1       0.00000000      -0.00188183       0.00469905       0.00594873
Pt       7.00905879       2.42702943      26.91386119        1       0.00000000       0.00496060      -0.00073221       0.00597910
Pt       2.84174671       4.88264103      26.91112669        1       0.00000000      -0.00151537      -0.00537854       0.00380737
Pt       5.61408193       4.86330602      26.91796905        1       0.00000000      -0.00573491      -0.00465907       0.00750880
Pt       8.38668423       4.88190131      26.91114956        1       0.00000000       0.00565611       0.00159979       0.00398665
O        9.82518263       4.05174862      29.30709132        0       0.50000000      -0.00039104      -0.00058555      -0.00615520
H        9.82531394       4.05194791      28.31311431        0       0.50000000       0.00030347       0.00048733       0.00651847
