38
Lattice="8.421641763931781 0.0 0.0 4.2108208819658905 7.293355709136913 0.0 0.0 0.0 46.87624170604845" Properties=species:S:1:pos:R:3:tags:I:1:initial_magmoms:R:1:forces:R:3 charge=0 spin=0 energy=-194.68953081662022 free_energy=-194.68953081662022 stress="0.009698998183012009 5.8596288710077715e-08 -3.6840191341980244e-07 5.8596288710077715e-08 0.009699132293462753 3.3531006238263217e-07 -3.6840191341980244e-07 3.3531006238263217e-07 -5.1399121730355546e-05" pbc="T T T"
Pt      -0.00000001       0.00000015      19.95723445        4       0.00000000      -0.00033976       0.00070196       0.01483416
Pt       2.80721394      -0.00000009      19.95723448        4       0.00000000       0.00075411      -0.00002107       0.01482992
Pt       5.61442781      -0.00000017      19.95723450        4       0.00000000      -0.00071441       0.00549418      -0.00049073
Pt       1.40360720       2.43111836      19.95723436        4       0.00000000       0.00091673      -0.00339337       0.01070464
Pt       4.21082078       2.43111836      19.95723446        4       0.00000000       0.00509172      -0.00212715      -0.00047496
Pt       7.01803484       2.43111844      19.95723431        4       0.00000000      -0.00436985      -0.00336419      -0.00047129
Pt       2.80721414       4.86223727      19.95723413        4       0.00000000       0.00249029       0.00249125       0.01072011
Pt       5.61442797       4.86223736      19.95723433        4       0.00000000      -0.00041599      -0.00068028       0.01486298
Pt       8.42164142       4.86223724      19.95723439        4       0.00000000      -0.00340892       0.00089606       0.01071460
Pt       1.40360727       0.81037261      22.29206790        3       0.00000000       0.00202985       0.00091737      -0.04077092
Pt       4.21082126       0.81037249      22.29206793        3       0.00000000      -0.00362194      -0.00124317       0.00132474
Pt       7.01803475       0.81037258      22.29206787        3       0.00000000       0.00289279      -0.00251386       0.00133656
Pt       2.80721449       3.24149123      22.29206778        3       0.00000000      -0.00540427       0.00279898      -0.04679358
Pt       5.61442761       3.24149123      22.29206789        3       0.00000000       0.00074089       0.00376437       0.00132380
Pt       8.42164155       3.24149130      22.29206812        3       0.00000000       0.00514328       0.00326952      -0.04675624
Pt       4.21082090       5.67260997      22.29206743        3       0.00000000      -0.00181835       0.00128033      -0.04075457
Pt       7.01803489       5.67261038      22.29206778        3       0.00000000      -0.00021554      -0.00219218      -0.04072236
Pt       9.82524818       5.67261058      22.29206804        3       0.00000000       0.00025777      -0.00607304      -0.04675246
Pt      -0.00000057       1.62074568      24.58417368        2       0.00000000       0.00887986      -0.01313089       0.03156657
Pt       2.80721445       1.62074549      24.58417387        2       0.00000000       0.00110412      -0.01218753       0.03428406
Pt       5.61442780       1.62074538      24.58417368        2       0.00000000      -0.00000503       0.00002813      -0.01371987
Pt       1.40360635       4.05186441      24.58417386        2       0.00000000       0.00003600      -0.00003177       0.03264157
Pt       4.21082088       4.05186391      24.58417389        2       0.00000000       0.00698868       0.01421473       0.03158960
Pt       7.01803505       4.05186405      24.58417404        2       0.00000000      -0.01136990       0.00495611       0.03415986
Pt       2.80721273       6.48298348      24.58417381        2       0.00000000       0.01016039       0.00713760       0.03430421
Pt       5.61442805       6.48298330      24.58417394        2       0.00000000       0.00000524      -0.00001315       0.04934504
Pt       8.42164222       6.48298341      24.58417373        2       0.00000000      -0.01583427      -0.00094513       0.03138268
Pt       0.00400882      -0.00124704      26.92577432        1       0.00000000      -0.01897332       0.01237718      -0.02761761
Pt       2.80412770      -0.00284446      26.92577475        1       0.00000000       0.02018988       0.01026137      -0.02761748
Pt       5.61521294       0.01094543      26.91484675        1       0.00000000      -0.00136175      -0.00836152      -0.00208021
Pt       1.40351726       2.39109271      26.91117648        1       0.00000000      -0.00026303      -0.02038984      -0.00996696
Pt       4.21991299       2.42496949      26.91485508        1       0.00000000      -0.00654860       0.00536679      -0.00204524
Pt       7.00816662       2.42632183      26.91485802        1       0.00000000       0.00792433       0.00298696      -0.00203753
Pt       2.84192241       4.88217542      26.91116489        1       0.00000000       0.01778427       0.00994916      -0.01003082
Pt       5.61350139       4.86633065      26.92577736        1       0.00000000      -0.00124142      -0.02260140      -0.02761617
Pt       8.38699901       4.88233871      26.91111202        1       0.00000000      -0.01764624       0.01047183      -0.01034524
O        9.82539076       4.05176664      29.28749511        0       0.50000000       0.00080789      -0.00053811       0.04490106
H        9.82513495       4.05193904      28.29388245        0       0.50000000      -0.00064549       0.00044375      -0.00776190
