38
Lattice="8.421641763931781 0.0 0.0 4.2108208819658905 7.293355709136913 0.0 0.0 0.0 46.87624170604845" Properties=species:S:1:pos:R:3:tags:I:1:initial_magmoms:R:1:forces:R:3 charge=0 spin=0 energy=-194.69028803402745 free_energy=-194.69028803402745 stress="0.009694707579910755 -4.5051447017385726e-08 -1.2372780133773631e-08 -4.5051447017385726e-08 0.009694604203104973 3.867855014050292e-08 -1.2372780133773631e-08 3.867855014050292e-08 -8.113288640743122e-05" pbc="T T T"
Pt      -0.00000001       0.00000015      19.95723445        4       0.00000000      -0.00033874       0.00059826       0.01470549
Pt       2.80721394      -0.00000009      19.95723448        4       0.00000000       0.00066584       0.00003007       0.01470023
Pt       5.61442781      -0.00000017      19.95723450        4       0.00000000      -0.00067364       0.00548794      -0.00029540
Pt       1.40360720       2.43111836      19.95723436        4       0.00000000       0.00086081      -0.00285185       0.01083969
Pt       4.21082078       2.43111836      19.95723446        4       0.00000000       0.00505894      -0.00215596      -0.00030969
Pt       7.01803484       2.43111844      19.95723431        4       0.00000000      -0.00438470      -0.00332058      -0.00028779
Pt       2.80721414       4.86223727      19.95723413        4       0.00000000       0.00205026       0.00216809       0.01085196
Pt       5.61442797       4.86223736      19.95723433        4       0.00000000      -0.00032827      -0.00062950       0.01473035
Pt       8.42164142       4.86223724      19.95723439        4       0.00000000      -0.00291148       0.00067562       0.01085006
Pt       1.40360727       0.81037261      22.29206790        3       0.00000000       0.00201078       0.00043286      -0.04138355
Pt       4.21082126       0.81037249      22.29206793        3       0.00000000      -0.00351788      -0.00092800      -0.00070377
Pt       7.01803475       0.81037258      22.29206787        3       0.00000000       0.00256956      -0.00257136      -0.00070690
Pt       2.80721449       3.24149123      22.29206778        3       0.00000000      -0.00471549       0.00249466      -0.04389654
Pt       5.61442761       3.24149123      22.29206789        3       0.00000000       0.00094724       0.00351543      -0.00069958
Pt       8.42164155       3.24149130      22.29206812        3       0.00000000       0.00453786       0.00282924      -0.04384429
Pt       4.21082090       5.67260997      22.29206743        3       0.00000000      -0.00139279       0.00151231      -0.04136403
Pt       7.01803489       5.67261038      22.29206778        3       0.00000000      -0.00063043      -0.00193715      -0.04132036
Pt       9.82524818       5.67261058      22.29206804        3       0.00000000       0.00018006      -0.00533072      -0.04383520
Pt      -0.00000057       1.62074568      24.58417368        2       0.00000000       0.01020598      -0.00489204       0.01907819
Pt       2.80721445       1.62074549      24.58417387        2       0.00000000      -0.00063048      -0.00412676       0.02234196
Pt       5.61442780       1.62074538      24.58417368        2       0.00000000       0.00000306       0.00002667      -0.01024050
Pt       1.40360635       4.05186441      24.58417386        2       0.00000000       0.00001128       0.00000356       0.04168826
Pt       4.21082088       4.05186391      24.58417389        2       0.00000000      -0.00090520       0.01131136       0.01926339
Pt       7.01803505       4.05186405      24.58417404        2       0.00000000      -0.00334416       0.00255644       0.02249564
Pt       2.80721273       6.48298348      24.58417381        2       0.00000000       0.00405555       0.00154385       0.02241193
Pt       5.61442805       6.48298330      24.58417394        2       0.00000000      -0.00000367       0.00000524       0.03884518
Pt       8.42164222       6.48298341      24.58417373        2       0.00000000      -0.00938155      -0.00644677       0.01918450
Pt       0.00048401       0.00096639      26.92008296        1       0.00000000       0.00485669      -0.00275148      -0.00385065
Pt       2.80781098      -0.00090216      26.92008302        1       0.00000000      -0.00479226      -0.00286108      -0.00385508
Pt       5.61504782       0.00911752      26.91459358        1       0.00000000      -0.00044808       0.00090585       0.00246950
Pt       1.40346423       2.39118659      26.91254606        1       0.00000000       0.00026816      -0.00049011      -0.00393775
Pt       4.21840810       2.42602833      26.91460855        1       0.00000000       0.00100007      -0.00007171       0.00224802
Pt       7.00983314       2.42709258      26.91460963        1       0.00000000      -0.00056319      -0.00084830       0.00223865
Pt       2.84185048       4.88207380      26.91256524        1       0.00000000       0.00021239       0.00044428      -0.00375451
Pt       5.61334769       4.86216839      26.92008087        1       0.00000000      -0.00004440       0.00557940      -0.00408249
Pt       8.38714235       4.88231340      26.91256545        1       0.00000000      -0.00048643      -0.00002746      -0.00375315
O        9.82524983       4.05196636      29.30750609        0       0.50000000       0.00000525       0.00056740       0.01969808
H        9.82524750       4.05177883      28.31416290        0       0.50000000      -0.00000695      -0.00044761      -0.01651968
