38
Lattice="8.421641763931781 0.0 0.0 4.2108208819658905 7.293355709136913 0.0 0.0 0.0 46.87624170604845" Properties=species:S:1:pos:R:3:tags:I:1:initial_magmoms:R:1:forces:R:3 charge=0 spin=0 energy=-194.6889185577091 free_energy=-194.6889185577091 stress="0.00977577455341816 3.8711920780087894e-08 4.2121463650346413e-08 3.8711920780087894e-08 0.009775768034160137 1.3843778390310035e-07 4.2121463650346413e-08 1.3843778390310035e-07 5.030732063460164e-05" pbc="T T T"
Pt      -0.00000001       0.00000015      19.95723445        4       0.00000000       0.00014621       0.00039583       0.01475490
Pt       2.80721394      -0.00000009      19.95723448        4       0.00000000       0.00024334      -0.00028736       0.01474708
Pt       5.61442781      -0.00000017      19.95723450        4       0.00000000      -0.00058537       0.00533919      -0.00014688
Pt       1.40360720       2.43111836      19.95723436        4       0.00000000       0.00091996      -0.00231293       0.01103441
Pt       4.21082078       2.43111836      19.95723446        4       0.00000000       0.00489365      -0.00216891      -0.00012710
Pt       7.01803484       2.43111844      19.95723431        4       0.00000000      -0.00430046      -0.00318114      -0.00010322
Pt       2.80721414       4.86223727      19.95723413        4       0.00000000       0.00154337       0.00195121       0.01103598
Pt       5.61442797       4.86223736      19.95723433        4       0.00000000      -0.00039270      -0.00009503       0.01477445
Pt       8.42164142       4.86223724      19.95723439        4       0.00000000      -0.00246703       0.00035351       0.01103298
Pt       1.40360727       0.81037261      22.29206790        3       0.00000000       0.00216362       0.00088247      -0.03909261
Pt       4.21082126       0.81037249      22.29206793        3       0.00000000      -0.00270130      -0.00022425      -0.00461888
Pt       7.01803475       0.81037258      22.29206787        3       0.00000000       0.00153404      -0.00227755      -0.00457796
Pt       2.80721449       3.24149123      22.29206778        3       0.00000000      -0.00428567       0.00231319      -0.04262141
Pt       5.61442761       3.24149123      22.29206789        3       0.00000000       0.00118605       0.00248105      -0.00466374
Pt       8.42164155       3.24149130      22.29206812        3       0.00000000       0.00414570       0.00259557      -0.04256064
Pt       4.21082090       5.67260997      22.29206743        3       0.00000000      -0.00186400       0.00138225      -0.03923452
Pt       7.01803489       5.67261038      22.29206778        3       0.00000000      -0.00029390      -0.00228615      -0.03920477
Pt       9.82524818       5.67261058      22.29206804        3       0.00000000       0.00013462      -0.00486288      -0.04267973
Pt      -0.00000057       1.62074568      24.58417368        2       0.00000000       0.02120681      -0.00303078       0.02825995
Pt       2.80721445       1.62074549      24.58417387        2       0.00000000      -0.01350706      -0.00468033       0.03163051
Pt       5.61442780       1.62074538      24.58417368        2       0.00000000       0.00005926      -0.00010224       0.00391090
Pt       1.40360635       4.05186441      24.58417386        2       0.00000000       0.00000597      -0.00030258       0.07657063
Pt       4.21082088       4.05186391      24.58417389        2       0.00000000      -0.00799383       0.01949779       0.02723159
Pt       7.01803505       4.05186405      24.58417404        2       0.00000000       0.00253919       0.01339421       0.03081396
Pt       2.80721273       6.48298348      24.58417381        2       0.00000000       0.01086900      -0.00868169       0.03137516
Pt       5.61442805       6.48298330      24.58417394        2       0.00000000      -0.00005492       0.00039459       0.06580773
Pt       8.42164222       6.48298341      24.58417373        2       0.00000000      -0.01312511      -0.01645008       0.02776543
Pt      -0.00247060       0.00439592      26.92214277        1       0.00000000       0.02895907      -0.02652346      -0.01802185
Pt       2.81228622      -0.00000515      26.92208723        1       0.00000000      -0.03769293      -0.01190007      -0.01774811
Pt       5.61641417       0.00322704      26.91290647        1       0.00000000      -0.00541997       0.03773962       0.00897184
Pt       1.40306204       2.39106622      26.92063734        1       0.00000000       0.00306646       0.01209091      -0.03255139
Pt       4.21260237       2.42777101      26.91279411        1       0.00000000       0.03539319      -0.01417150       0.00944991
Pt       7.01422196       2.43117899      26.91286210        1       0.00000000      -0.02976381      -0.02362019       0.00915977
Pt       2.84214893       4.88186074      26.92035259        1       0.00000000      -0.01204760      -0.00357726      -0.03172080
Pt       5.61191006       4.85786026      26.92178549        1       0.00000000       0.00831517       0.03865098      -0.01650108
Pt       8.38719867       4.88269946      26.92036553        1       0.00000000       0.00915803      -0.00871655      -0.03173365
O        9.82524800       4.05178003      29.32964992        0       0.50000000      -0.00004133      -0.00079388      -0.02407118
H        9.82525665       4.05195582      28.33578351        0       0.50000000       0.00005430       0.00078460       0.00365228
