38
Lattice="8.421641763931781 0.0 0.0 4.2108208819658905 7.293355709136913 0.0 0.0 0.0 46.87624170604845" Properties=species:S:1:pos:R:3:tags:I:1:initial_magmoms:R:1:forces:R:3 charge=0 spin=0 energy=-194.68892237240635 free_energy=-194.68892237240635 stress="0.009775793179869652 3.824795413720494e-08 3.989655539271553e-08 3.824795413720494e-08 0.009775776416063309 1.372412725686445e-07 3.989655539271553e-08 1.372412725686445e-07 5.0288599595660344e-05" pbc="T T T"
Pt      -0.00000001       0.00000015      19.95723445        4       0.00000000       0.00014617       0.00039565       0.01475460
Pt       2.80721394      -0.00000009      19.95723448        4       0.00000000       0.00024339      -0.00028718       0.01474705
Pt       5.61442781      -0.00000017      19.95723450        4       0.00000000      -0.00058534       0.00533917      -0.00014671
Pt       1.40360720       2.43111836      19.95723436        4       0.00000000       0.00091999      -0.00231283       0.01103458
Pt       4.21082078       2.43111836      19.95723446        4       0.00000000       0.00489349      -0.00216894      -0.00012674
Pt       7.01803484       2.43111844      19.95723431        4       0.00000000      -0.00430029      -0.00318127      -0.00010307
Pt       2.80721414       4.86223727      19.95723413        4       0.00000000       0.00154340       0.00195109       0.01103593
Pt       5.61442797       4.86223736      19.95723433        4       0.00000000      -0.00039276      -0.00009495       0.01477445
Pt       8.42164142       4.86223724      19.95723439        4       0.00000000      -0.00246687       0.00035350       0.01103279
Pt       1.40360727       0.81037261      22.29206790        3       0.00000000       0.00216344       0.00088244      -0.03909278
Pt       4.21082126       0.81037249      22.29206793        3       0.00000000      -0.00270120      -0.00022437      -0.00461918
Pt       7.01803475       0.81037258      22.29206787        3       0.00000000       0.00153379      -0.00227758      -0.00457812
Pt       2.80721449       3.24149123      22.29206778        3       0.00000000      -0.00428591       0.00231316      -0.04262058
Pt       5.61442761       3.24149123      22.29206789        3       0.00000000       0.00118582       0.00248100      -0.00466361
Pt       8.42164155       3.24149130      22.29206812        3       0.00000000       0.00414542       0.00259553      -0.04256043
Pt       4.21082090       5.67260997      22.29206743        3       0.00000000      -0.00186413       0.00138220      -0.03923484
Pt       7.01803489       5.67261038      22.29206778        3       0.00000000      -0.00029394      -0.00228602      -0.03920480
Pt       9.82524818       5.67261058      22.29206804        3       0.00000000       0.00013455      -0.00486298      -0.04267937
Pt      -0.00000057       1.62074568      24.58417368        2       0.00000000       0.02120685      -0.00303147       0.02825871
Pt       2.80721445       1.62074549      24.58417387        2       0.00000000      -0.01350685      -0.00467995       0.03162993
Pt       5.61442780       1.62074538      24.58417368        2       0.00000000       0.00005917      -0.00010201       0.00391096
Pt       1.40360635       4.05186441      24.58417386        2       0.00000000       0.00000693      -0.00030271       0.07657100
Pt       4.21082088       4.05186391      24.58417389        2       0.00000000      -0.00799364       0.01949686       0.02723236
Pt       7.01803505       4.05186405      24.58417404        2       0.00000000       0.00253834       0.01339405       0.03081361
Pt       2.80721273       6.48298348      24.58417381        2       0.00000000       0.01086911      -0.00868097       0.03137362
Pt       5.61442805       6.48298330      24.58417394        2       0.00000000      -0.00005454       0.00039451       0.06580848
Pt       8.42164222       6.48298341      24.58417373        2       0.00000000      -0.01312544      -0.01645011       0.02776626
Pt      -0.00247082       0.00439612      26.92214216        1       0.00000000       0.02895968      -0.02652494      -0.01802213
Pt       2.81228634      -0.00000446      26.92208674        1       0.00000000      -0.03769253      -0.01190420      -0.01774957
Pt       5.61641422       0.00322727      26.91290671        1       0.00000000      -0.00542033       0.03773855       0.00897275
Pt       1.40306166       2.39106647      26.92063772        1       0.00000000       0.00306810       0.01209442      -0.03254822
Pt       4.21260223       2.42777068      26.91279377        1       0.00000000       0.03539356      -0.01416621       0.00945042
Pt       7.01422210       2.43117879      26.91286200        1       0.00000000      -0.02976366      -0.02361739       0.00916075
Pt       2.84214859       4.88186110      26.92035301        1       0.00000000      -0.01204796      -0.00358404      -0.03171736
Pt       5.61191055       4.85786016      26.92178528        1       0.00000000       0.00831325       0.03865087      -0.01650224
Pt       8.38719912       4.88269856      26.92036656        1       0.00000000       0.00915625      -0.00871337      -0.03173157
O        9.82524774       4.05178002      29.32965509        0       0.50000000      -0.00004138      -0.00079358      -0.02401096
H        9.82525664       4.05195574      28.33579042        0       0.50000000       0.00005607       0.00078419       0.00358426
