38
Lattice="8.421641763931781 0.0 0.0 4.2108208819658905 7.293355709136913 0.0 0.0 0.0 46.87624170604845" Properties=species:S:1:pos:R:3:tags:I:1:initial_magmoms:R:1:forces:R:3 charge=0 spin=0 energy=-194.6902556091007 free_energy=-194.6902556091007 stress="0.009662988595664501 -5.270738956397736e-09 1.7864380197352148e-07 -5.270738956397736e-09 0.009663229808211327 3.958053014230245e-07 1.7864380197352148e-07 3.958053014230245e-07 -0.00012532829714473337" pbc="T T T"
Pt      -0.00000001       0.00000015      19.95723445        4       0.00000000      -0.00037990       0.00066598       0.01465443
Pt       2.80721394      -0.00000009      19.95723448        4       0.00000000       0.00074853       0.00002967       0.01465040
Pt       5.61442781      -0.00000017      19.95723450        4       0.00000000      -0.00072939       0.00548775      -0.00030314
Pt       1.40360720       2.43111836      19.95723436        4       0.00000000       0.00079484      -0.00292830       0.01080665
Pt       4.21082078       2.43111836      19.95723446        4       0.00000000       0.00509201      -0.00210980      -0.00030246
Pt       7.01803484       2.43111844      19.95723431        4       0.00000000      -0.00436522      -0.00337188      -0.00027186
Pt       2.80721414       4.86223727      19.95723413        4       0.00000000       0.00214897       0.00214874       0.01081696
Pt       5.61442797       4.86223736      19.95723433        4       0.00000000      -0.00036850      -0.00069869       0.01468141
Pt       8.42164142       4.86223724      19.95723439        4       0.00000000      -0.00294281       0.00077022       0.01081681
Pt       1.40360727       0.81037261      22.29206790        3       0.00000000       0.00194457       0.00034382      -0.04153641
Pt       4.21082126       0.81037249      22.29206793        3       0.00000000      -0.00354532      -0.00094503      -0.00034690
Pt       7.01803475       0.81037258      22.29206787        3       0.00000000       0.00259635      -0.00259384      -0.00036051
Pt       2.80721449       3.24149123      22.29206778        3       0.00000000      -0.00467389       0.00250454      -0.04379353
Pt       5.61442761       3.24149123      22.29206789        3       0.00000000       0.00094645       0.00354592      -0.00035357
Pt       8.42164155       3.24149130      22.29206812        3       0.00000000       0.00453352       0.00278024      -0.04373290
Pt       4.21082090       5.67260997      22.29206743        3       0.00000000      -0.00127922       0.00149368      -0.04152090
Pt       7.01803489       5.67261038      22.29206778        3       0.00000000      -0.00067115      -0.00183553      -0.04146526
Pt       9.82524818       5.67261058      22.29206804        3       0.00000000       0.00014593      -0.00530116      -0.04372578
Pt      -0.00000057       1.62074568      24.58417368        2       0.00000000       0.00893023      -0.00354134       0.01372373
Pt       2.80721445       1.62074549      24.58417387        2       0.00000000       0.00079519      -0.00242581       0.01406413
Pt       5.61442780       1.62074538      24.58417368        2       0.00000000       0.00000254       0.00001851      -0.01666014
Pt       1.40360635       4.05186441      24.58417386        2       0.00000000      -0.00000763       0.00003589       0.03614387
Pt       4.21082088       4.05186391      24.58417389        2       0.00000000      -0.00122460       0.00949656       0.01381059
Pt       7.01803505       4.05186405      24.58417404        2       0.00000000      -0.00275442       0.00047392       0.01415205
Pt       2.80721273       6.48298348      24.58417381        2       0.00000000       0.00186080       0.00205349       0.01402302
Pt       5.61442805       6.48298330      24.58417394        2       0.00000000      -0.00000756      -0.00007833       0.02356310
Pt       8.42164222       6.48298341      24.58417373        2       0.00000000      -0.00757834      -0.00595369       0.01383873
Pt       0.00109057      -0.00020850      26.91790638        1       0.00000000      -0.00114150       0.00727080       0.00821834
Pt       2.80646308      -0.00080100      26.91790686        1       0.00000000       0.00703438      -0.00289535       0.00819726
Pt       5.61537082       0.00981498      26.91385803        1       0.00000000      -0.00311345      -0.00401628       0.00609848
Pt       1.40403252       2.39105186      26.91114444        1       0.00000000      -0.00418932       0.00414779       0.00451648
Pt       4.21886369       2.42539973      26.91386560        1       0.00000000      -0.00188468       0.00469853       0.00594996
Pt       7.00905915       2.42702935      26.91386090        1       0.00000000       0.00496289      -0.00073203       0.00597855
Pt       2.84174557       4.88264047      26.91112638        1       0.00000000      -0.00152583      -0.00538538       0.00382770
Pt       5.61408213       4.86330561      26.91796954        1       0.00000000      -0.00573972      -0.00465533       0.00750710
Pt       8.38668463       4.88190057      26.91114905        1       0.00000000       0.00567114       0.00159394       0.00399952
O        9.82518482       4.05175376      29.30710759        0       0.50000000      -0.00038009      -0.00055721      -0.00611406
H        9.82531198       4.05194399      28.31313232        0       0.50000000       0.00029415       0.00046490       0.00644803
