38
Lattice="8.421641763931781 0.0 0.0 4.2108208819658905 7.293355709136913 0.0 0.0 0.0 46.87624170604845" Properties=species:S:1:pos:R:3:tags:I:1:initial_magmoms:R:1:forces:R:3 charge=0 spin=0 energy=-194.6902556091007 free_energy=-194.6902556091007 stress="0.00966295599937439 -8.00345834051086e-09 1.8656750455647853e-07 -8.00345834051086e-09 0.00966319628059864 4.058348963553726e-07 1.8656750455647853e-07 4.058348963553726e-07 -0.00012537000293377787" pbc="T T T"
Pt      -0.00000001       0.00000015      19.95723445        4       0.00000000      -0.00037995       0.00066599       0.01465445
Pt       2.80721394      -0.00000009      19.95723448        4       0.00000000       0.00074859       0.00002972       0.01465057
Pt       5.61442781      -0.00000017      19.95723450        4       0.00000000      -0.00072927       0.00548766      -0.00030343
Pt       1.40360720       2.43111836      19.95723436        4       0.00000000       0.00079485      -0.00292845       0.01080650
Pt       4.21082078       2.43111836      19.95723446        4       0.00000000       0.00509200      -0.00210978      -0.00030273
Pt       7.01803484       2.43111844      19.95723431        4       0.00000000      -0.00436536      -0.00337217      -0.00027188
Pt       2.80721414       4.86223727      19.95723413        4       0.00000000       0.00214899       0.00214878       0.01081689
Pt       5.61442797       4.86223736      19.95723433        4       0.00000000      -0.00036853      -0.00069868       0.01468147
Pt       8.42164142       4.86223724      19.95723439        4       0.00000000      -0.00294266       0.00077025       0.01081681
Pt       1.40360727       0.81037261      22.29206790        3       0.00000000       0.00194488       0.00034378      -0.04153649
Pt       4.21082126       0.81037249      22.29206793        3       0.00000000      -0.00354532      -0.00094562      -0.00034522
Pt       7.01803475       0.81037258      22.29206787        3       0.00000000       0.00259670      -0.00259391      -0.00035997
Pt       2.80721449       3.24149123      22.29206778        3       0.00000000      -0.00467394       0.00250440      -0.04379388
Pt       5.61442761       3.24149123      22.29206789        3       0.00000000       0.00094641       0.00354614      -0.00035298
Pt       8.42164155       3.24149130      22.29206812        3       0.00000000       0.00453395       0.00278046      -0.04373327
Pt       4.21082090       5.67260997      22.29206743        3       0.00000000      -0.00127961       0.00149375      -0.04152156
Pt       7.01803489       5.67261038      22.29206778        3       0.00000000      -0.00067130      -0.00183561      -0.04146589
Pt       9.82524818       5.67261058      22.29206804        3       0.00000000       0.00014582      -0.00530130      -0.04372686
Pt      -0.00000057       1.62074568      24.58417368        2       0.00000000       0.00893129      -0.00354177       0.01372363
Pt       2.80721445       1.62074549      24.58417387        2       0.00000000       0.00079376      -0.00242502       0.01406641
Pt       5.61442780       1.62074538      24.58417368        2       0.00000000       0.00000288       0.00001872      -0.01666237
Pt       1.40360635       4.05186441      24.58417386        2       0.00000000      -0.00000647       0.00003494       0.03613821
Pt       4.21082088       4.05186391      24.58417389        2       0.00000000      -0.00122210       0.00949460       0.01380579
Pt       7.01803505       4.05186405      24.58417404        2       0.00000000      -0.00275656       0.00047269       0.01414890
Pt       2.80721273       6.48298348      24.58417381        2       0.00000000       0.00186069       0.00205740       0.01401858
Pt       5.61442805       6.48298330      24.58417394        2       0.00000000      -0.00000776      -0.00007791       0.02356066
Pt       8.42164222       6.48298341      24.58417373        2       0.00000000      -0.00757904      -0.00595259       0.01383627
Pt       0.00109108      -0.00020852      26.91790587        1       0.00000000      -0.00114521       0.00727182       0.00821959
Pt       2.80646267      -0.00080091      26.91790729        1       0.00000000       0.00703653      -0.00289449       0.00819707
Pt       5.61537017       0.00981523      26.91385814        1       0.00000000      -0.00310988      -0.00401557       0.00609920
Pt       1.40403234       2.39105151      26.91114465        1       0.00000000      -0.00418759       0.00414490       0.00451967
Pt       4.21886378       2.42539986      26.91386514        1       0.00000000      -0.00188542       0.00469809       0.00594981
Pt       7.00905892       2.42702931      26.91386088        1       0.00000000       0.00496160      -0.00073282       0.00597954
Pt       2.84174694       4.88264100      26.91112564        1       0.00000000      -0.00152180      -0.00538070       0.00381878
Pt       5.61408201       4.86330610      26.91796970        1       0.00000000      -0.00573503      -0.00465821       0.00750937
Pt       8.38668431       4.88190118      26.91114880        1       0.00000000       0.00566289       0.00159649       0.00400340
O        9.82518236       4.05174932      29.30709457        0       0.50000000      -0.00039662      -0.00058086      -0.00609269
H        9.82531419       4.05194731      28.31312020        0       0.50000000       0.00030757       0.00048495       0.00644790
