38
Lattice="8.421641763931781 0.0 0.0 4.2108208819658905 7.293355709136913 0.0 0.0 0.0 46.87624170604845" Properties=species:S:1:pos:R:3:tags:I:1:initial_magmoms:R:1:forces:R:3 charge=0 spin=0 energy=-194.68953463131749 free_energy=-194.68953463131749 stress="0.009699016809463501 6.054560230950301e-08 -3.6176547268951253e-07 6.054560230950301e-08 0.00969916582107544 3.503892855860613e-07 -3.6176547268951253e-07 3.503892855860613e-07 -5.1369024731684476e-05" pbc="T T T"
Pt      -0.00000001       0.00000015      19.95723445        4       0.00000000      -0.00033962       0.00070182       0.01483406
Pt       2.80721394      -0.00000009      19.95723448        4       0.00000000       0.00075405      -0.00002108       0.01482992
Pt       5.61442781      -0.00000017      19.95723450        4       0.00000000      -0.00071473       0.00549422      -0.00049061
Pt       1.40360720       2.43111836      19.95723436        4       0.00000000       0.00091678      -0.00339355       0.01070438
Pt       4.21082078       2.43111836      19.95723446        4       0.00000000       0.00509158      -0.00212729      -0.00047504
Pt       7.01803484       2.43111844      19.95723431        4       0.00000000      -0.00436998      -0.00336451      -0.00047082
Pt       2.80721414       4.86223727      19.95723413        4       0.00000000       0.00249033       0.00249123       0.01072031
Pt       5.61442797       4.86223736      19.95723433        4       0.00000000      -0.00041591      -0.00068023       0.01486270
Pt       8.42164142       4.86223724      19.95723439        4       0.00000000      -0.00340909       0.00089602       0.01071471
Pt       1.40360727       0.81037261      22.29206790        3       0.00000000       0.00203011       0.00091782      -0.04077018
Pt       4.21082126       0.81037249      22.29206793        3       0.00000000      -0.00362206      -0.00124319       0.00132505
Pt       7.01803475       0.81037258      22.29206787        3       0.00000000       0.00289338      -0.00251344       0.00133656
Pt       2.80721449       3.24149123      22.29206778        3       0.00000000      -0.00540425       0.00279942      -0.04679492
Pt       5.61442761       3.24149123      22.29206789        3       0.00000000       0.00074112       0.00376474       0.00132466
Pt       8.42164155       3.24149130      22.29206812        3       0.00000000       0.00514385       0.00327036      -0.04675736
Pt       4.21082090       5.67260997      22.29206743        3       0.00000000      -0.00181855       0.00128021      -0.04075404
Pt       7.01803489       5.67261038      22.29206778        3       0.00000000      -0.00021526      -0.00219203      -0.04072224
Pt       9.82524818       5.67261058      22.29206804        3       0.00000000       0.00025788      -0.00607333      -0.04675325
Pt      -0.00000057       1.62074568      24.58417368        2       0.00000000       0.00887412      -0.01313781       0.03156915
Pt       2.80721445       1.62074549      24.58417387        2       0.00000000       0.00110717      -0.01219100       0.03428521
Pt       5.61442780       1.62074538      24.58417368        2       0.00000000      -0.00000426       0.00002774      -0.01371666
Pt       1.40360635       4.05186441      24.58417386        2       0.00000000       0.00003446      -0.00003156       0.03263270
Pt       4.21082088       4.05186391      24.58417389        2       0.00000000       0.00699857       0.01421372       0.03158689
Pt       7.01803505       4.05186405      24.58417404        2       0.00000000      -0.01137615       0.00495657       0.03416262
Pt       2.80721273       6.48298348      24.58417381        2       0.00000000       0.01016502       0.00714670       0.03430026
Pt       5.61442805       6.48298330      24.58417394        2       0.00000000       0.00000282      -0.00001496       0.04935752
Pt       8.42164222       6.48298341      24.58417373        2       0.00000000      -0.01583681      -0.00094329       0.03138237
Pt       0.00400932      -0.00124750      26.92577791        1       0.00000000      -0.01897442       0.01237686      -0.02763572
Pt       2.80412717      -0.00284482      26.92577831        1       0.00000000       0.02019292       0.01026070      -0.02762456
Pt       5.61521299       0.01094520      26.91484662        1       0.00000000      -0.00136573      -0.00835683      -0.00207506
Pt       1.40351678       2.39109336      26.91117441        1       0.00000000      -0.00025775      -0.02037372      -0.00993816
Pt       4.21991277       2.42496950      26.91485515        1       0.00000000      -0.00654776       0.00536513      -0.00204510
Pt       7.00816664       2.42632186      26.91485802        1       0.00000000       0.00792419       0.00298935      -0.00203901
Pt       2.84192238       4.88217545      26.91116103        1       0.00000000       0.01778421       0.00994117      -0.01001316
Pt       5.61350162       4.86633120      26.92578102        1       0.00000000      -0.00123804      -0.02260261      -0.02763788
Pt       8.38700002       4.88233784      26.91111063        1       0.00000000      -0.01764558       0.01046686      -0.01032219
O        9.82538572       4.05176705      29.28750747        0       0.50000000       0.00080361      -0.00056712       0.04486765
H        9.82513973       4.05193949      28.29389605        0       0.50000000      -0.00065013       0.00046703      -0.00776058
