38
Lattice="8.421641763931781 0.0 0.0 4.2108208819658905 7.293355709136913 0.0 0.0 0.0 46.87624170604845" Properties=species:S:1:pos:R:3:tags:I:1:initial_magmoms:R:1:forces:R:3 charge=0 spin=0 energy=-194.69025370175206 free_energy=-194.69025370175206 stress="0.009662983007729053 -7.679647140435009e-09 1.833479359447665e-07 -7.679647140435009e-09 0.009663223288953304 4.051925657222455e-07 1.833479359447665e-07 4.051925657222455e-07 -0.00012530920503195375" pbc="T T T"
Pt      -0.00000001       0.00000015      19.95723445        4       0.00000000      -0.00037999       0.00066613       0.01465450
Pt       2.80721394      -0.00000009      19.95723448        4       0.00000000       0.00074851       0.00002970       0.01465034
Pt       5.61442781      -0.00000017      19.95723450        4       0.00000000      -0.00072918       0.00548766      -0.00030331
Pt       1.40360720       2.43111836      19.95723436        4       0.00000000       0.00079484      -0.00292834       0.01080671
Pt       4.21082078       2.43111836      19.95723446        4       0.00000000       0.00509192      -0.00210988      -0.00030254
Pt       7.01803484       2.43111844      19.95723431        4       0.00000000      -0.00436535      -0.00337206      -0.00027173
Pt       2.80721414       4.86223727      19.95723413        4       0.00000000       0.00214889       0.00214876       0.01081689
Pt       5.61442797       4.86223736      19.95723433        4       0.00000000      -0.00036846      -0.00069848       0.01468145
Pt       8.42164142       4.86223724      19.95723439        4       0.00000000      -0.00294256       0.00077030       0.01081685
Pt       1.40360727       0.81037261      22.29206790        3       0.00000000       0.00194466       0.00034381      -0.04153626
Pt       4.21082126       0.81037249      22.29206793        3       0.00000000      -0.00354532      -0.00094518      -0.00034617
Pt       7.01803475       0.81037258      22.29206787        3       0.00000000       0.00259623      -0.00259395      -0.00035999
Pt       2.80721449       3.24149123      22.29206778        3       0.00000000      -0.00467386       0.00250436      -0.04379357
Pt       5.61442761       3.24149123      22.29206789        3       0.00000000       0.00094661       0.00354570      -0.00035379
Pt       8.42164155       3.24149130      22.29206812        3       0.00000000       0.00453378       0.00278021      -0.04373284
Pt       4.21082090       5.67260997      22.29206743        3       0.00000000      -0.00127928       0.00149362      -0.04152126
Pt       7.01803489       5.67261038      22.29206778        3       0.00000000      -0.00067125      -0.00183566      -0.04146580
Pt       9.82524818       5.67261058      22.29206804        3       0.00000000       0.00014583      -0.00530115      -0.04372631
Pt      -0.00000057       1.62074568      24.58417368        2       0.00000000       0.00893348      -0.00354014       0.01372807
Pt       2.80721445       1.62074549      24.58417387        2       0.00000000       0.00079146      -0.00242390       0.01407001
Pt       5.61442780       1.62074538      24.58417368        2       0.00000000       0.00000257       0.00001870      -0.01666030
Pt       1.40360635       4.05186441      24.58417386        2       0.00000000      -0.00000736       0.00003454       0.03614577
Pt       4.21082088       4.05186391      24.58417389        2       0.00000000      -0.00122455       0.00949585       0.01380967
Pt       7.01803505       4.05186405      24.58417404        2       0.00000000      -0.00275425       0.00047420       0.01415307
Pt       2.80721273       6.48298348      24.58417381        2       0.00000000       0.00186124       0.00205414       0.01402150
Pt       5.61442805       6.48298330      24.58417394        2       0.00000000      -0.00000749      -0.00007821       0.02356314
Pt       8.42164222       6.48298341      24.58417373        2       0.00000000      -0.00757873      -0.00595478       0.01383952
Pt       0.00109097      -0.00020843      26.91790574        1       0.00000000      -0.00114102       0.00727291       0.00821889
Pt       2.80646284      -0.00080073      26.91790756        1       0.00000000       0.00703431      -0.00289398       0.00819476
Pt       5.61537059       0.00981474      26.91385828        1       0.00000000      -0.00311361      -0.00401217       0.00609907
Pt       1.40403240       2.39105186      26.91114525        1       0.00000000      -0.00418785       0.00414476       0.00450989
Pt       4.21886335       2.42539983      26.91386572        1       0.00000000      -0.00188430       0.00469759       0.00594911
Pt       7.00905906       2.42702941      26.91386066        1       0.00000000       0.00496161      -0.00073259       0.00597999
Pt       2.84174631       4.88264099      26.91112663        1       0.00000000      -0.00152215      -0.00538468       0.00381513
Pt       5.61408195       4.86330573      26.91796953        1       0.00000000      -0.00573600      -0.00465543       0.00750780
Pt       8.38668486       4.88190109      26.91114903        1       0.00000000       0.00566462       0.00159330       0.00399454
O        9.82518253       4.05175037      29.30709992        0       0.50000000      -0.00039101      -0.00057682      -0.00617242
H        9.82531388       4.05194645      28.31312445        0       0.50000000       0.00030304       0.00048114       0.00651987
