38
Lattice="8.421641763931781 0.0 0.0 4.2108208819658905 7.293355709136913 0.0 0.0 0.0 46.87624170604845" Properties=species:S:1:pos:R:3:tags:I:1:initial_magmoms:R:1:forces:R:3 charge=0 spin=0 energy=-194.68892046505772 free_energy=-194.68892046505772 stress="0.009775782935321331 3.6023848792865465e-08 4.069664782946347e-08 3.6023848792865465e-08 0.009775776416063309 1.373618658817577e-07 4.069664782946347e-08 1.373618658817577e-07 5.0307822675677016e-05" pbc="T T T"
Pt      -0.00000001       0.00000015      19.95723445        4       0.00000000       0.00014639       0.00039578       0.01475467
Pt       2.80721394      -0.00000009      19.95723448        4       0.00000000       0.00024351      -0.00028717       0.01474701
Pt       5.61442781      -0.00000017      19.95723450        4       0.00000000      -0.00058529       0.00533906      -0.00014682
Pt       1.40360720       2.43111836      19.95723436        4       0.00000000       0.00091998      -0.00231281       0.01103447
Pt       4.21082078       2.43111836      19.95723446        4       0.00000000       0.00489347      -0.00216876      -0.00012714
Pt       7.01803484       2.43111844      19.95723431        4       0.00000000      -0.00430032      -0.00318118      -0.00010312
Pt       2.80721414       4.86223727      19.95723413        4       0.00000000       0.00154341       0.00195093       0.01103598
Pt       5.61442797       4.86223736      19.95723433        4       0.00000000      -0.00039271      -0.00009486       0.01477449
Pt       8.42164142       4.86223724      19.95723439        4       0.00000000      -0.00246718       0.00035357       0.01103284
Pt       1.40360727       0.81037261      22.29206790        3       0.00000000       0.00216344       0.00088245      -0.03909265
Pt       4.21082126       0.81037249      22.29206793        3       0.00000000      -0.00270177      -0.00022478      -0.00461944
Pt       7.01803475       0.81037258      22.29206787        3       0.00000000       0.00153386      -0.00227774      -0.00457791
Pt       2.80721449       3.24149123      22.29206778        3       0.00000000      -0.00428582       0.00231338      -0.04262136
Pt       5.61442761       3.24149123      22.29206789        3       0.00000000       0.00118577       0.00248100      -0.00466344
Pt       8.42164155       3.24149130      22.29206812        3       0.00000000       0.00414537       0.00259583      -0.04256066
Pt       4.21082090       5.67260997      22.29206743        3       0.00000000      -0.00186422       0.00138146      -0.03923366
Pt       7.01803489       5.67261038      22.29206778        3       0.00000000      -0.00029383      -0.00228606      -0.03920440
Pt       9.82524818       5.67261058      22.29206804        3       0.00000000       0.00013396      -0.00486309      -0.04268037
Pt      -0.00000057       1.62074568      24.58417368        2       0.00000000       0.02120610      -0.00303392       0.02826260
Pt       2.80721445       1.62074549      24.58417387        2       0.00000000      -0.01350957      -0.00468185       0.03162613
Pt       5.61442780       1.62074538      24.58417368        2       0.00000000       0.00006049      -0.00010277       0.00390892
Pt       1.40360635       4.05186441      24.58417386        2       0.00000000       0.00000672      -0.00030238       0.07656867
Pt       4.21082088       4.05186391      24.58417389        2       0.00000000      -0.00799287       0.01949983       0.02723040
Pt       7.01803505       4.05186405      24.58417404        2       0.00000000       0.00253914       0.01339417       0.03081375
Pt       2.80721273       6.48298348      24.58417381        2       0.00000000       0.01087204      -0.00867904       0.03137986
Pt       5.61442805       6.48298330      24.58417394        2       0.00000000      -0.00005555       0.00039490       0.06580771
Pt       8.42164222       6.48298341      24.58417373        2       0.00000000      -0.01312489      -0.01645020       0.02776820
Pt      -0.00246750       0.00439560      26.92214342        1       0.00000000       0.02894220      -0.02652299      -0.01803099
Pt       2.81228583      -0.00000524      26.92208731        1       0.00000000      -0.03768720      -0.01190429      -0.01774804
Pt       5.61641435       0.00322766      26.91290645        1       0.00000000      -0.00541954       0.03773499       0.00897016
Pt       1.40306108       2.39106693      26.92063743        1       0.00000000       0.00306751       0.01209044      -0.03254830
Pt       4.21260027       2.42777052      26.91279275        1       0.00000000       0.03540307      -0.01416706       0.00945860
Pt       7.01422141       2.43117859      26.91286218        1       0.00000000      -0.02976024      -0.02362045       0.00916060
Pt       2.84214821       4.88186122      26.92035253        1       0.00000000      -0.01204367      -0.00357724      -0.03171995
Pt       5.61191060       4.85786031      26.92178535        1       0.00000000       0.00830840       0.03864857      -0.01650188
Pt       8.38719946       4.88269829      26.92036571        1       0.00000000       0.00915589      -0.00870890      -0.03173350
O        9.82524766       4.05177998      29.32965363        0       0.50000000      -0.00004247      -0.00079433      -0.02407423
H        9.82525680       4.05195581      28.33578730        0       0.50000000       0.00005642       0.00078546       0.00365300
