38
Lattice="8.421641763931781 0.0 0.0 4.2108208819658905 7.293355709136913 0.0 0.0 0.0 46.87624170604845" Properties=species:S:1:pos:R:3:tags:I:1:initial_magmoms:R:1:forces:R:3 charge=0 spin=0 energy=-194.68892237240635 free_energy=-194.68892237240635 stress="0.009775781072676182 3.778766455297955e-08 4.3177561082075044e-08 3.778766455297955e-08 0.00977577455341816 1.385599972536511e-07 4.3177561082075044e-08 1.385599972536511e-07 5.030913234804757e-05" pbc="T T T"
Pt      -0.00000001       0.00000015      19.95723445        4       0.00000000       0.00014637       0.00039583       0.01475465
Pt       2.80721394      -0.00000009      19.95723448        4       0.00000000       0.00024330      -0.00028726       0.01474691
Pt       5.61442781      -0.00000017      19.95723450        4       0.00000000      -0.00058533       0.00533908      -0.00014690
Pt       1.40360720       2.43111836      19.95723436        4       0.00000000       0.00091975      -0.00231287       0.01103434
Pt       4.21082078       2.43111836      19.95723446        4       0.00000000       0.00489362      -0.00216887      -0.00012691
Pt       7.01803484       2.43111844      19.95723431        4       0.00000000      -0.00430025      -0.00318121      -0.00010307
Pt       2.80721414       4.86223727      19.95723413        4       0.00000000       0.00154357       0.00195118       0.01103591
Pt       5.61442797       4.86223736      19.95723433        4       0.00000000      -0.00039279      -0.00009491       0.01477451
Pt       8.42164142       4.86223724      19.95723439        4       0.00000000      -0.00246721       0.00035344       0.01103292
Pt       1.40360727       0.81037261      22.29206790        3       0.00000000       0.00216355       0.00088279      -0.03909251
Pt       4.21082126       0.81037249      22.29206793        3       0.00000000      -0.00270111      -0.00022446      -0.00461905
Pt       7.01803475       0.81037258      22.29206787        3       0.00000000       0.00153379      -0.00227793      -0.00457782
Pt       2.80721449       3.24149123      22.29206778        3       0.00000000      -0.00428557       0.00231351      -0.04262165
Pt       5.61442761       3.24149123      22.29206789        3       0.00000000       0.00118595       0.00248094      -0.00466361
Pt       8.42164155       3.24149130      22.29206812        3       0.00000000       0.00414554       0.00259597      -0.04256110
Pt       4.21082090       5.67260997      22.29206743        3       0.00000000      -0.00186383       0.00138207      -0.03923360
Pt       7.01803489       5.67261038      22.29206778        3       0.00000000      -0.00029378      -0.00228609      -0.03920480
Pt       9.82524818       5.67261058      22.29206804        3       0.00000000       0.00013411      -0.00486298      -0.04268036
Pt      -0.00000057       1.62074568      24.58417368        2       0.00000000       0.02120660      -0.00303450       0.02826107
Pt       2.80721445       1.62074549      24.58417387        2       0.00000000      -0.01350982      -0.00468188       0.03162671
Pt       5.61442780       1.62074538      24.58417368        2       0.00000000       0.00006071      -0.00010186       0.00390923
Pt       1.40360635       4.05186441      24.58417386        2       0.00000000       0.00000667      -0.00030229       0.07657067
Pt       4.21082088       4.05186391      24.58417389        2       0.00000000      -0.00799306       0.01949907       0.02722955
Pt       7.01803505       4.05186405      24.58417404        2       0.00000000       0.00253828       0.01339345       0.03081406
Pt       2.80721273       6.48298348      24.58417381        2       0.00000000       0.01087182      -0.00867902       0.03138029
Pt       5.61442805       6.48298330      24.58417394        2       0.00000000      -0.00005601       0.00039487       0.06580605
Pt       8.42164222       6.48298341      24.58417373        2       0.00000000      -0.01312487      -0.01644993       0.02776644
Pt      -0.00246747       0.00439543      26.92214327        1       0.00000000       0.02893829      -0.02652300      -0.01803154
Pt       2.81228570      -0.00000530      26.92208736        1       0.00000000      -0.03768763      -0.01189976      -0.01774745
Pt       5.61641425       0.00322790      26.91290642        1       0.00000000      -0.00541613       0.03773323       0.00897069
Pt       1.40306100       2.39106681      26.92063737        1       0.00000000       0.00306880       0.01209342      -0.03254838
Pt       4.21260040       2.42777046      26.91279255        1       0.00000000       0.03540561      -0.01416645       0.00945986
Pt       7.01422208       2.43117831      26.91286187        1       0.00000000      -0.02976650      -0.02361795       0.00915986
Pt       2.84214868       4.88186131      26.92035238        1       0.00000000      -0.01204965      -0.00357771      -0.03171972
Pt       5.61191037       4.85786050      26.92178549        1       0.00000000       0.00831152       0.03864387      -0.01650021
Pt       8.38719867       4.88269866      26.92036567        1       0.00000000       0.00916211      -0.00871315      -0.03173195
O        9.82524762       4.05177987      29.32965359        0       0.50000000      -0.00004212      -0.00079445      -0.02407559
H        9.82525677       4.05195578      28.33578714        0       0.50000000       0.00005553       0.00078592       0.00365241
