38
Lattice="8.421641763931781 0.0 0.0 4.2108208819658905 7.293355709136913 0.0 0.0 0.0 46.87624170604845" Properties=species:S:1:pos:R:3:tags:I:1:initial_magmoms:R:1:forces:R:3 charge=0 spin=0 energy=-194.6889185577091 free_energy=-194.6889185577091 stress="0.009775790385901928 3.842470164272527e-08 4.252849805652659e-08 3.842470164272527e-08 0.00977577455341816 1.3853929203833104e-07 4.252849805652659e-08 1.3853929203833104e-07 5.031600812799297e-05" pbc="T T T"
Pt      -0.00000001       0.00000015      19.95723445        4       0.00000000       0.00014630       0.00039584       0.01475467
Pt       2.80721394      -0.00000009      19.95723448        4       0.00000000       0.00024341      -0.00028721       0.01474705
Pt       5.61442781      -0.00000017      19.95723450        4       0.00000000      -0.00058536       0.00533903      -0.00014680
Pt       1.40360720       2.43111836      19.95723436        4       0.00000000       0.00091982      -0.00231285       0.01103447
Pt       4.21082078       2.43111836      19.95723446        4       0.00000000       0.00489353      -0.00216888      -0.00012695
Pt       7.01803484       2.43111844      19.95723431        4       0.00000000      -0.00430040      -0.00318113      -0.00010307
Pt       2.80721414       4.86223727      19.95723413        4       0.00000000       0.00154338       0.00195112       0.01103585
Pt       5.61442797       4.86223736      19.95723433        4       0.00000000      -0.00039271      -0.00009505       0.01477426
Pt       8.42164142       4.86223724      19.95723439        4       0.00000000      -0.00246681       0.00035359       0.01103296
Pt       1.40360727       0.81037261      22.29206790        3       0.00000000       0.00216338       0.00088244      -0.03909276
Pt       4.21082126       0.81037249      22.29206793        3       0.00000000      -0.00270131      -0.00022445      -0.00461904
Pt       7.01803475       0.81037258      22.29206787        3       0.00000000       0.00153388      -0.00227759      -0.00457805
Pt       2.80721449       3.24149123      22.29206778        3       0.00000000      -0.00428554       0.00231310      -0.04262079
Pt       5.61442761       3.24149123      22.29206789        3       0.00000000       0.00118605       0.00248101      -0.00466384
Pt       8.42164155       3.24149130      22.29206812        3       0.00000000       0.00414542       0.00259577      -0.04256037
Pt       4.21082090       5.67260997      22.29206743        3       0.00000000      -0.00186405       0.00138215      -0.03923466
Pt       7.01803489       5.67261038      22.29206778        3       0.00000000      -0.00029379      -0.00228600      -0.03920509
Pt       9.82524818       5.67261058      22.29206804        3       0.00000000       0.00013430      -0.00486271      -0.04267952
Pt      -0.00000057       1.62074568      24.58417368        2       0.00000000       0.02120708      -0.00303164       0.02825778
Pt       2.80721445       1.62074549      24.58417387        2       0.00000000      -0.01350691      -0.00468018       0.03162991
Pt       5.61442780       1.62074538      24.58417368        2       0.00000000       0.00005912      -0.00010141       0.00391091
Pt       1.40360635       4.05186441      24.58417386        2       0.00000000       0.00000691      -0.00030262       0.07657018
Pt       4.21082088       4.05186391      24.58417389        2       0.00000000      -0.00799348       0.01949710       0.02723259
Pt       7.01803505       4.05186405      24.58417404        2       0.00000000       0.00253807       0.01339401       0.03081362
Pt       2.80721273       6.48298348      24.58417381        2       0.00000000       0.01086904      -0.00868200       0.03137358
Pt       5.61442805       6.48298330      24.58417394        2       0.00000000      -0.00005486       0.00039461       0.06580926
Pt       8.42164222       6.48298341      24.58417373        2       0.00000000      -0.01312560      -0.01645038       0.02776600
Pt      -0.00247113       0.00439594      26.92214216        1       0.00000000       0.02896496      -0.02652536      -0.01802158
Pt       2.81228636      -0.00000449      26.92208677        1       0.00000000      -0.03769388      -0.01190408      -0.01774955
Pt       5.61641430       0.00322736      26.91290656        1       0.00000000      -0.00542169       0.03773733       0.00897336
Pt       1.40306155       2.39106648      26.92063761        1       0.00000000       0.00307013       0.01209330      -0.03254726
Pt       4.21260229       2.42777068      26.91279383        1       0.00000000       0.03539325      -0.01416633       0.00945021
Pt       7.01422274       2.43117866      26.91286213        1       0.00000000      -0.02976737      -0.02361519       0.00916115
Pt       2.84214866       4.88186088      26.92035306        1       0.00000000      -0.01204772      -0.00358160      -0.03171773
Pt       5.61191035       4.85786029      26.92178553        1       0.00000000       0.00831319       0.03865062      -0.01650299
Pt       8.38719893       4.88269883      26.92036625        1       0.00000000       0.00915587      -0.00871477      -0.03173110
O        9.82524762       4.05178002      29.32965386        0       0.50000000      -0.00004126      -0.00079372      -0.02407983
H        9.82525679       4.05195577      28.33578902        0       0.50000000       0.00005542       0.00078422       0.00365275
