38
Lattice="8.421641763931781 0.0 0.0 4.2108208819658905 7.293355709136913 0.0 0.0 0.0 46.87624170604845" Properties=species:S:1:pos:R:3:tags:I:1:initial_magmoms:R:1:forces:R:3 charge=0 spin=0 energy=-194.69025751644932 free_energy=-194.69025751644932 stress="0.009662988595664501 -1.0726972199393003e-08 1.8660432488104561e-07 -1.0726972199393003e-08 0.009663230739533901 4.0091376263262646e-07 1.8660432488104561e-07 4.0091376263262646e-07 -0.00012528248771559447" pbc="T T T"
Pt      -0.00000001       0.00000015      19.95723445        4       0.00000000      -0.00037977       0.00066598       0.01465433
Pt       2.80721394      -0.00000009      19.95723448        4       0.00000000       0.00074860       0.00002962       0.01465021
Pt       5.61442781      -0.00000017      19.95723450        4       0.00000000      -0.00072922       0.00548778      -0.00030324
Pt       1.40360720       2.43111836      19.95723436        4       0.00000000       0.00079494      -0.00292833       0.01080667
Pt       4.21082078       2.43111836      19.95723446        4       0.00000000       0.00509204      -0.00210976      -0.00030282
Pt       7.01803484       2.43111844      19.95723431        4       0.00000000      -0.00436539      -0.00337206      -0.00027159
Pt       2.80721414       4.86223727      19.95723413        4       0.00000000       0.00214903       0.00214854       0.01081683
Pt       5.61442797       4.86223736      19.95723433        4       0.00000000      -0.00036849      -0.00069855       0.01468138
Pt       8.42164142       4.86223724      19.95723439        4       0.00000000      -0.00294267       0.00077023       0.01081674
Pt       1.40360727       0.81037261      22.29206790        3       0.00000000       0.00194449       0.00034404      -0.04153706
Pt       4.21082126       0.81037249      22.29206793        3       0.00000000      -0.00354573      -0.00094517      -0.00034642
Pt       7.01803475       0.81037258      22.29206787        3       0.00000000       0.00259625      -0.00259391      -0.00036006
Pt       2.80721449       3.24149123      22.29206778        3       0.00000000      -0.00467438       0.00250465      -0.04379358
Pt       5.61442761       3.24149123      22.29206789        3       0.00000000       0.00094622       0.00354611      -0.00035271
Pt       8.42164155       3.24149130      22.29206812        3       0.00000000       0.00453395       0.00278014      -0.04373314
Pt       4.21082090       5.67260997      22.29206743        3       0.00000000      -0.00127947       0.00149338      -0.04152124
Pt       7.01803489       5.67261038      22.29206778        3       0.00000000      -0.00067161      -0.00183563      -0.04146575
Pt       9.82524818       5.67261058      22.29206804        3       0.00000000       0.00014577      -0.00530156      -0.04372628
Pt      -0.00000057       1.62074568      24.58417368        2       0.00000000       0.00892570      -0.00354185       0.01372216
Pt       2.80721445       1.62074549      24.58417387        2       0.00000000       0.00079738      -0.00242650       0.01406163
Pt       5.61442780       1.62074538      24.58417368        2       0.00000000       0.00000510       0.00002000      -0.01665549
Pt       1.40360635       4.05186441      24.58417386        2       0.00000000      -0.00000684       0.00003650       0.03613795
Pt       4.21082088       4.05186391      24.58417389        2       0.00000000      -0.00121916       0.00949533       0.01380912
Pt       7.01803505       4.05186405      24.58417404        2       0.00000000      -0.00275885       0.00047134       0.01415425
Pt       2.80721273       6.48298348      24.58417381        2       0.00000000       0.00186081       0.00205822       0.01401671
Pt       5.61442805       6.48298330      24.58417394        2       0.00000000      -0.00000766      -0.00008046       0.02356451
Pt       8.42164222       6.48298341      24.58417373        2       0.00000000      -0.00757838      -0.00595142       0.01383656
Pt       0.00109127      -0.00020852      26.91790616        1       0.00000000      -0.00114310       0.00727298       0.00821938
Pt       2.80646269      -0.00080091      26.91790720        1       0.00000000       0.00703782      -0.00289505       0.00819762
Pt       5.61537057       0.00981480      26.91385885        1       0.00000000      -0.00311353      -0.00401184       0.00609909
Pt       1.40403277       2.39105203      26.91114289        1       0.00000000      -0.00419010       0.00415435       0.00453623
Pt       4.21886360       2.42539988      26.91386605        1       0.00000000      -0.00188086       0.00469921       0.00594924
Pt       7.00905925       2.42702944      26.91386129        1       0.00000000       0.00495818      -0.00073156       0.00596896
Pt       2.84174614       4.88264117      26.91112447        1       0.00000000      -0.00152853      -0.00539119       0.00383061
Pt       5.61408216       4.86330607      26.91797038        1       0.00000000      -0.00573880      -0.00465929       0.00749892
Pt       8.38668466       4.88190063      26.91114764        1       0.00000000       0.00567591       0.00159069       0.00401702
O        9.82518115       4.05175088      29.30711141        0       0.50000000      -0.00039958      -0.00057063      -0.00626631
H        9.82531493       4.05194584      28.31313362        0       0.50000000       0.00030995       0.00047576       0.00658946
