38
Lattice="8.421641763931781 0.0 0.0 4.2108208819658905 7.293355709136913 0.0 0.0 0.0 46.87624170604845" Properties=species:S:1:pos:R:3:tags:I:1:initial_magmoms:R:1:forces:R:3 charge=0 spin=0 energy=-194.4146799712833 free_energy=-194.4146799712833 stress="0.010195547714829445 4.355965543823004e-08 1.4071697584938647e-08 4.355965543823004e-08 0.010195491835474968 -6.94938884215901e-10 1.4071697584938647e-08 -6.94938884215901e-10 -0.00015394324145745486" pbc="T T T"
Pt      -0.00000001       0.00000015      19.95723445        4       0.00000000       0.00000334      -0.00000594       0.00971592
Pt       2.80721394      -0.00000009      19.95723448        4       0.00000000      -0.00135400      -0.00031541       0.01206203
Pt       5.61442781      -0.00000017      19.95723450        4       0.00000000       0.00042291       0.00035184       0.01177927
Pt       1.40360720       2.43111836      19.95723436        4       0.00000000       0.00009321      -0.00054853       0.01180641
Pt       4.21082078       2.43111836      19.95723446        4       0.00000000       0.00000288       0.00000308       0.01154004
Pt       7.01803484       2.43111844      19.95723431        4       0.00000000       0.00094622      -0.00102719       0.01208097
Pt       2.80721414       4.86223727      19.95723413        4       0.00000000       0.00040355       0.00134180       0.01206907
Pt       5.61442797       4.86223736      19.95723433        4       0.00000000      -0.00051738       0.00019752       0.01178054
Pt       8.42164142       4.86223724      19.95723439        4       0.00000000       0.00000018       0.00000007       0.01174358
Pt       1.40360727       0.81037261      22.29206790        3       0.00000000      -0.00140682      -0.00261626      -0.03534326
Pt       4.21082126       0.81037249      22.29206793        3       0.00000000      -0.00150144       0.00105110      -0.03793010
Pt       7.01803475       0.81037258      22.29206787        3       0.00000000       0.00297279       0.00009223      -0.03535824
Pt       2.80721449       3.24149123      22.29206778        3       0.00000000       0.00163125       0.00079071      -0.03805684
Pt       5.61442761       3.24149123      22.29206789        3       0.00000000      -0.00014346      -0.00179489      -0.03803811
Pt       8.42164155       3.24149130      22.29206812        3       0.00000000      -0.00088480       0.00345566      -0.03772015
Pt       4.21082090       5.67260997      22.29206743        3       0.00000000      -0.00156871       0.00252606      -0.03532960
Pt       7.01803489       5.67261038      22.29206778        3       0.00000000       0.00344715      -0.00097042      -0.03758025
Pt       9.82524818       5.67261058      22.29206804        3       0.00000000      -0.00254619      -0.00253702      -0.03761094
Pt      -0.00000057       1.62074568      24.58417368        2       0.00000000       0.00125311       0.01120192       0.02969226
Pt       2.80721445       1.62074549      24.58417387        2       0.00000000      -0.02648107      -0.01784462      -0.01251267
Pt       5.61442780       1.62074538      24.58417368        2       0.00000000       0.02858834      -0.01422995      -0.01252268
Pt       1.40360635       4.05186441      24.58417386        2       0.00000000       0.01041806      -0.00814964       0.03226380
Pt       4.21082088       4.05186391      24.58417389        2       0.00000000      -0.00207380       0.03185542      -0.01248033
Pt       7.01803505       4.05186405      24.58417404        2       0.00000000      -0.01239433      -0.00481100       0.03224475
Pt       2.80721273       6.48298348      24.58417381        2       0.00000000      -0.01026213      -0.00444995       0.02957276
Pt       5.61442805       6.48298330      24.58417394        2       0.00000000       0.00903631      -0.00662346       0.02954798
Pt       8.42164222       6.48298341      24.58417373        2       0.00000000       0.00191383       0.01305792       0.03208172
Pt      -0.00000005       0.00003226      26.90630144        1       0.00000000      -0.00000971       0.00025404       0.03123630
Pt       2.80587845      -0.00121808      26.91706133        1       0.00000000       0.00248922       0.00198368       0.00126997
Pt       5.61452101      -0.00272237      26.91756259        1       0.00000000      -0.00254882       0.00190030       0.00025477
Pt       1.40137504       2.43228856      26.91750851        1       0.00000000       0.00271717       0.00135838       0.00014673
Pt       4.21082063       2.43112188      26.90207381        1       0.00000000       0.00000120      -0.00000671       0.03029566
Pt       7.01957004       2.43048905      26.91696662        1       0.00000000      -0.00274774       0.00128906       0.00114749
Pt       2.80701379       4.86408560      26.91704542        1       0.00000000       0.00027885      -0.00323806       0.00121840
Pt       5.61656637       4.86379858      26.91760371        1       0.00000000      -0.00018608      -0.00328325       0.00024756
Pt       8.42164102       4.86220795      26.90866211        1       0.00000000       0.00002104      -0.00026055       0.02218444
O        4.21082451       2.43110843      30.23258489        0       0.50000000      -0.00000812      -0.00001477      -0.00553620
H        4.21081575       2.43112517      29.24131725        0       0.50000000      -0.00000602       0.00001675      -0.00196276
