38
Lattice="8.421641763931781 0.0 0.0 4.2108208819658905 7.293355709136913 0.0 0.0 0.0 46.87624170604845" Properties=species:S:1:pos:R:3:tags:I:1:initial_magmoms:R:1:forces:R:3 charge=0 spin=0 energy=-194.41468760067784 free_energy=-194.41468760067784 stress="0.010195543989539146 1.744450628393679e-08 9.095297848205064e-09 1.744450628393679e-08 0.010195461101830006 5.725365070929911e-09 9.095297848205064e-09 5.725365070929911e-09 -0.0001539145887363702" pbc="T T T"
Pt      -0.00000001       0.00000015      19.95723445        4       0.00000000       0.00000350      -0.00000576       0.00971615
Pt       2.80721394      -0.00000009      19.95723448        4       0.00000000      -0.00135411      -0.00031549       0.01206163
Pt       5.61442781      -0.00000017      19.95723450        4       0.00000000       0.00042301       0.00035179       0.01177917
Pt       1.40360720       2.43111836      19.95723436        4       0.00000000       0.00009329      -0.00054855       0.01180631
Pt       4.21082078       2.43111836      19.95723446        4       0.00000000       0.00000299       0.00000314       0.01154045
Pt       7.01803484       2.43111844      19.95723431        4       0.00000000       0.00094644      -0.00102712       0.01208086
Pt       2.80721414       4.86223727      19.95723413        4       0.00000000       0.00040372       0.00134183       0.01206914
Pt       5.61442797       4.86223736      19.95723433        4       0.00000000      -0.00051711       0.00019769       0.01178035
Pt       8.42164142       4.86223724      19.95723439        4       0.00000000      -0.00000013       0.00000011       0.01174344
Pt       1.40360727       0.81037261      22.29206790        3       0.00000000      -0.00140694      -0.00261629      -0.03534405
Pt       4.21082126       0.81037249      22.29206793        3       0.00000000      -0.00150126       0.00105179      -0.03793185
Pt       7.01803475       0.81037258      22.29206787        3       0.00000000       0.00297307       0.00009255      -0.03535750
Pt       2.80721449       3.24149123      22.29206778        3       0.00000000       0.00163107       0.00079117      -0.03805686
Pt       5.61442761       3.24149123      22.29206789        3       0.00000000      -0.00014404      -0.00179472      -0.03803822
Pt       8.42164155       3.24149130      22.29206812        3       0.00000000      -0.00088490       0.00345627      -0.03772047
Pt       4.21082090       5.67260997      22.29206743        3       0.00000000      -0.00156847       0.00252582      -0.03532911
Pt       7.01803489       5.67261038      22.29206778        3       0.00000000       0.00344697      -0.00097064      -0.03758109
Pt       9.82524818       5.67261058      22.29206804        3       0.00000000      -0.00254610      -0.00253700      -0.03761062
Pt      -0.00000057       1.62074568      24.58417368        2       0.00000000       0.00125201       0.01119831       0.02969111
Pt       2.80721445       1.62074549      24.58417387        2       0.00000000      -0.02647978      -0.01784430      -0.01250962
Pt       5.61442780       1.62074538      24.58417368        2       0.00000000       0.02858729      -0.01422901      -0.01251647
Pt       1.40360635       4.05186441      24.58417386        2       0.00000000       0.01041689      -0.00814852       0.03226480
Pt       4.21082088       4.05186391      24.58417389        2       0.00000000      -0.00207416       0.03185371      -0.01247421
Pt       7.01803505       4.05186405      24.58417404        2       0.00000000      -0.01239352      -0.00481218       0.03224526
Pt       2.80721273       6.48298348      24.58417381        2       0.00000000      -0.01025989      -0.00444840       0.02957244
Pt       5.61442805       6.48298330      24.58417394        2       0.00000000       0.00903455      -0.00662132       0.02954802
Pt       8.42164222       6.48298341      24.58417373        2       0.00000000       0.00191389       0.01305440       0.03208379
Pt      -0.00000081       0.00003103      26.90630312        1       0.00000000      -0.00002255       0.00026484       0.03122061
Pt       2.80587805      -0.00121912      26.91706125        1       0.00000000       0.00249106       0.00199000       0.00126917
Pt       5.61452145      -0.00272351      26.91756298        1       0.00000000      -0.00255274       0.00190605       0.00025379
Pt       1.40137374       2.43228828      26.91750852        1       0.00000000       0.00273076       0.00135517       0.00014646
Pt       4.21082088       2.43112166      26.90207325        1       0.00000000      -0.00000045      -0.00000520       0.03029918
Pt       7.01957132       2.43048873      26.91696692        1       0.00000000      -0.00276072       0.00128755       0.00114764
Pt       2.80701324       4.86408637      26.91704562        1       0.00000000       0.00028392      -0.00324597       0.00121721
Pt       5.61656682       4.86379904      26.91760358        1       0.00000000      -0.00019231      -0.00329045       0.00024765
Pt       8.42164053       4.86220705      26.90866417        1       0.00000000       0.00003700      -0.00025747       0.02217456
O        4.21082545       2.43111287      30.23260203        0       0.50000000      -0.00000437      -0.00001727      -0.00561474
H        4.21081605       2.43112458      29.24133372        0       0.50000000      -0.00000746       0.00001339      -0.00187404
