38
Lattice="8.421641763931781 0.0 0.0 4.2108208819658905 7.293355709136913 0.0 0.0 0.0 46.87624170604845" Properties=species:S:1:pos:R:3:tags:I:1:initial_magmoms:R:1:forces:R:3 charge=0 spin=0 energy=-194.41491076046788 free_energy=-194.41491076046788 stress="0.010227167047560215 8.57994422176489e-08 -4.438172851450872e-08 8.57994422176489e-08 0.01022707112133503 -2.54139909117157e-09 -4.438172851450872e-08 -2.54139909117157e-09 -0.00011154769163113087" pbc="T T T"
Pt      -0.00000001       0.00000015      19.95723445        4       0.00000000       0.00000889      -0.00000619       0.00977374
Pt       2.80721394      -0.00000009      19.95723448        4       0.00000000      -0.00137832      -0.00031762       0.01202325
Pt       5.61442781      -0.00000017      19.95723450        4       0.00000000       0.00043744       0.00037057       0.01174668
Pt       1.40360720       2.43111836      19.95723436        4       0.00000000       0.00010353      -0.00057957       0.01177225
Pt       4.21082078       2.43111836      19.95723446        4       0.00000000      -0.00000181       0.00000154       0.01173010
Pt       7.01803484       2.43111844      19.95723431        4       0.00000000       0.00096143      -0.00104686       0.01204594
Pt       2.80721414       4.86223727      19.95723413        4       0.00000000       0.00041122       0.00136257       0.01202967
Pt       5.61442797       4.86223736      19.95723433        4       0.00000000      -0.00054403       0.00020742       0.01174651
Pt       8.42164142       4.86223724      19.95723439        4       0.00000000      -0.00000129       0.00000329       0.01195970
Pt       1.40360727       0.81037261      22.29206790        3       0.00000000      -0.00146551      -0.00270094      -0.03534670
Pt       4.21082126       0.81037249      22.29206793        3       0.00000000      -0.00155971       0.00102497      -0.03789555
Pt       7.01803475       0.81037258      22.29206787        3       0.00000000       0.00307960       0.00008779      -0.03543555
Pt       2.80721449       3.24149123      22.29206778        3       0.00000000       0.00162319       0.00087042      -0.03804702
Pt       5.61442761       3.24149123      22.29206789        3       0.00000000      -0.00008824      -0.00182986      -0.03802604
Pt       8.42164155       3.24149130      22.29206812        3       0.00000000      -0.00095057       0.00355089      -0.03788706
Pt       4.21082090       5.67260997      22.29206743        3       0.00000000      -0.00163577       0.00261263      -0.03537639
Pt       7.01803489       5.67261038      22.29206778        3       0.00000000       0.00356372      -0.00097413      -0.03771519
Pt       9.82524818       5.67261058      22.29206804        3       0.00000000      -0.00259787      -0.00263351      -0.03777584
Pt      -0.00000057       1.62074568      24.58417368        2       0.00000000       0.00102919       0.00571802       0.03951498
Pt       2.80721445       1.62074549      24.58417387        2       0.00000000      -0.02149860      -0.01515339      -0.00399330
Pt       5.61442780       1.62074538      24.58417368        2       0.00000000       0.02386329      -0.01135873      -0.00397654
Pt       1.40360635       4.05186441      24.58417386        2       0.00000000       0.00648229      -0.00571223       0.04052601
Pt       4.21082088       4.05186391      24.58417389        2       0.00000000      -0.00215068       0.02624241      -0.00392204
Pt       7.01803505       4.05186405      24.58417404        2       0.00000000      -0.00832552      -0.00264503       0.04076228
Pt       2.80721273       6.48298348      24.58417381        2       0.00000000      -0.00537889      -0.00180548       0.03920293
Pt       5.61442805       6.48298330      24.58417394        2       0.00000000       0.00438073      -0.00370531       0.03922786
Pt       8.42164222       6.48298341      24.58417373        2       0.00000000       0.00174739       0.00841666       0.04028209
Pt       0.00002515       0.00002090      26.91183124        1       0.00000000      -0.00003366       0.00048809       0.00180534
Pt       2.80602637      -0.00104464      26.91724844        1       0.00000000       0.00120238       0.00051710       0.00086448
Pt       5.61448010      -0.00271994      26.91752671        1       0.00000000      -0.00151706       0.00132009       0.00091673
Pt       1.40151091       2.43228076      26.91745882        1       0.00000000       0.00102164       0.00111900       0.00078407
Pt       4.21080840       2.43110994      26.90733399        1       0.00000000       0.00035395       0.00009057      -0.00256054
Pt       7.01934217       2.43048247      26.91716744        1       0.00000000      -0.00074113       0.00117006       0.00052383
Pt       2.80712701       4.86391962      26.91722153        1       0.00000000      -0.00038592      -0.00170058       0.00083263
Pt       5.61650858       4.86380140      26.91758705        1       0.00000000       0.00048280      -0.00241972       0.00076478
Pt       8.42169052       4.86222748      26.91352263        1       0.00000000      -0.00025041      -0.00057750      -0.00337141
O        4.21133938       2.43113695      30.22605548        0       0.50000000       0.00089660       0.00002599       0.03850235
H        4.21005443       2.43109388      29.23549274        0       0.50000000      -0.00114434      -0.00003328      -0.03800880
