38
Lattice="8.421641763931781 0.0 0.0 4.2108208819658905 7.293355709136913 0.0 0.0 0.0 46.87624170604845" Properties=species:S:1:pos:R:3:tags:I:1:initial_magmoms:R:1:forces:R:3 charge=0 spin=0 energy=-194.4148192077335 free_energy=-194.4148192077335 stress="0.01023382879793644 2.762224227126353e-08 -1.967064555685738e-08 2.762224227126353e-08 0.010233886539936066 5.711636958949384e-07 -1.967064555685738e-08 5.711636958949384e-07 -6.957287405384704e-05" pbc="T T T"
Pt      -0.00000001       0.00000015      19.95723445        4       0.00000000       0.00000277       0.00000635       0.00966702
Pt       2.80721394      -0.00000009      19.95723448        4       0.00000000      -0.00137632      -0.00031079       0.01199104
Pt       5.61442781      -0.00000017      19.95723450        4       0.00000000       0.00052923       0.00033573       0.01173213
Pt       1.40360720       2.43111836      19.95723436        4       0.00000000       0.00002015      -0.00061539       0.01175741
Pt       4.21082078       2.43111836      19.95723446        4       0.00000000       0.00000187      -0.00000435       0.01178722
Pt       7.01803484       2.43111844      19.95723431        4       0.00000000       0.00095166      -0.00103002       0.01200601
Pt       2.80721414       4.86223727      19.95723413        4       0.00000000       0.00042371       0.00133909       0.01200586
Pt       5.61442797       4.86223736      19.95723433        4       0.00000000      -0.00055340       0.00028266       0.01172936
Pt       8.42164142       4.86223724      19.95723439        4       0.00000000       0.00000019      -0.00000417       0.01205824
Pt       1.40360727       0.81037261      22.29206790        3       0.00000000      -0.00148502      -0.00276033      -0.03525264
Pt       4.21082126       0.81037249      22.29206793        3       0.00000000      -0.00143523       0.00098060      -0.03810113
Pt       7.01803475       0.81037258      22.29206787        3       0.00000000       0.00313621       0.00009503      -0.03524678
Pt       2.80721449       3.24149123      22.29206778        3       0.00000000       0.00159336       0.00072832      -0.03810706
Pt       5.61442761       3.24149123      22.29206789        3       0.00000000      -0.00016920      -0.00174086      -0.03809264
Pt       8.42164155       3.24149130      22.29206812        3       0.00000000      -0.00114022       0.00365379      -0.03777222
Pt       4.21082090       5.67260997      22.29206743        3       0.00000000      -0.00165379       0.00268854      -0.03521929
Pt       7.01803489       5.67261038      22.29206778        3       0.00000000       0.00370572      -0.00081336      -0.03776260
Pt       9.82524818       5.67261058      22.29206804        3       0.00000000      -0.00255611      -0.00282196      -0.03778198
Pt      -0.00000057       1.62074568      24.58417368        2       0.00000000       0.00134539       0.00283212       0.04346731
Pt       2.80721445       1.62074549      24.58417387        2       0.00000000      -0.02142554      -0.01343673      -0.00284774
Pt       5.61442780       1.62074538      24.58417368        2       0.00000000       0.02255749      -0.01151337      -0.00283454
Pt       1.40360635       4.05186441      24.58417386        2       0.00000000       0.00463084      -0.00414069       0.04309408
Pt       4.21082088       4.05186391      24.58417389        2       0.00000000      -0.00107952       0.02520713      -0.00299056
Pt       7.01803505       4.05186405      24.58417404        2       0.00000000      -0.00577223      -0.00221124       0.04308973
Pt       2.80721273       6.48298348      24.58417381        2       0.00000000      -0.00304653      -0.00023725       0.04316566
Pt       5.61442805       6.48298330      24.58417394        2       0.00000000       0.00168749      -0.00263586       0.04317208
Pt       8.42164222       6.48298341      24.58417373        2       0.00000000       0.00110537       0.00615693       0.04301016
Pt      -0.00000528      -0.00010342      26.91445598        1       0.00000000       0.00001020       0.00043525      -0.01245429
Pt       2.80539508       0.00020360      26.91686524        1       0.00000000       0.00237140      -0.00489754       0.00273801
Pt       5.61380289      -0.00366741      26.91740081        1       0.00000000       0.00211235       0.00401232       0.00151749
Pt       1.40061455       2.43355665      26.91752737        1       0.00000000       0.00364795      -0.00456444       0.00082871
Pt       4.21082326       2.43111122      26.90853485        1       0.00000000      -0.00004742       0.00002309      -0.01233381
Pt       7.01884824       2.42954126      26.91698700        1       0.00000000       0.00199790       0.00376543       0.00190699
Pt       2.80819347       4.86362150      26.91683700        1       0.00000000      -0.00423295       0.00108232       0.00274333
Pt       5.61806291       4.86346296      26.91743371        1       0.00000000      -0.00588854       0.00060399       0.00157898
Pt       8.42164515       4.86235507      26.91572593        1       0.00000000       0.00002284      -0.00048716      -0.01401820
O        4.21083324       2.43112142      30.21785759        0       0.50000000       0.00002053      -0.00000045      -0.04222041
H        4.21081884       2.43111902      29.22501968        0       0.50000000      -0.00001248      -0.00000291       0.04798910
