38
Lattice="8.421641763931781 0.0 0.0 4.2108208819658905 7.293355709136913 0.0 0.0 0.0 46.87624170604845" Properties=species:S:1:pos:R:3:tags:I:1:initial_magmoms:R:1:forces:R:3 charge=0 spin=0 energy=-194.41436907345616 free_energy=-194.41436907345616 stress="0.010243459604680538 4.908447337470534e-08 -2.0138815060022353e-08 4.908447337470534e-08 0.010243520140647888 -5.6043427676399915e-09 -2.0138815060022353e-08 -5.6043427676399915e-09 -6.92825997248292e-05" pbc="T T T"
Pt      -0.00000001       0.00000015      19.95723445        4       0.00000000       0.00000324       0.00000023       0.00948545
Pt       2.80721394      -0.00000009      19.95723448        4       0.00000000      -0.00143173      -0.00042879       0.01196422
Pt       5.61442781      -0.00000017      19.95723450        4       0.00000000       0.00051607       0.00038820       0.01170181
Pt       1.40360720       2.43111836      19.95723436        4       0.00000000       0.00007498      -0.00063876       0.01172792
Pt       4.21082078       2.43111836      19.95723446        4       0.00000000       0.00000240       0.00000074       0.01166006
Pt       7.01803484       2.43111844      19.95723431        4       0.00000000       0.00108325      -0.00102954       0.01198150
Pt       2.80721414       4.86223727      19.95723413        4       0.00000000       0.00034474       0.00145749       0.01197675
Pt       5.61442797       4.86223736      19.95723433        4       0.00000000      -0.00059261       0.00025292       0.01170094
Pt       8.42164142       4.86223724      19.95723439        4       0.00000000       0.00000018      -0.00000325       0.01212537
Pt       1.40360727       0.81037261      22.29206790        3       0.00000000      -0.00120048      -0.00260802      -0.03410645
Pt       4.21082126       0.81037249      22.29206793        3       0.00000000      -0.00152644       0.00097846      -0.03877959
Pt       7.01803475       0.81037258      22.29206787        3       0.00000000       0.00286112       0.00026351      -0.03411333
Pt       2.80721449       3.24149123      22.29206778        3       0.00000000       0.00160712       0.00083327      -0.03884748
Pt       5.61442761       3.24149123      22.29206789        3       0.00000000      -0.00009427      -0.00179441      -0.03883184
Pt       8.42164155       3.24149130      22.29206812        3       0.00000000      -0.00114964       0.00398734      -0.03782819
Pt       4.21082090       5.67260997      22.29206743        3       0.00000000      -0.00166037       0.00235043      -0.03409024
Pt       7.01803489       5.67261038      22.29206778        3       0.00000000       0.00402022      -0.00099448      -0.03775125
Pt       9.82524818       5.67261058      22.29206804        3       0.00000000      -0.00285757      -0.00301831      -0.03777716
Pt      -0.00000057       1.62074568      24.58417368        2       0.00000000       0.00117268      -0.00065508       0.05386522
Pt       2.80721445       1.62074549      24.58417387        2       0.00000000      -0.02728271      -0.01796024      -0.01065750
Pt       5.61442780       1.62074538      24.58417368        2       0.00000000       0.02919216      -0.01465760      -0.01069164
Pt       1.40360635       4.05186441      24.58417386        2       0.00000000       0.00139263      -0.00313123       0.05156983
Pt       4.21082088       4.05186391      24.58417389        2       0.00000000      -0.00188535       0.03257352      -0.01069857
Pt       7.01803505       4.05186405      24.58417404        2       0.00000000      -0.00343101       0.00035172       0.05153604
Pt       2.80721273       6.48298348      24.58417381        2       0.00000000       0.00003459       0.00137269       0.05378414
Pt       5.61442805       6.48298330      24.58417394        2       0.00000000      -0.00117983      -0.00066904       0.05379275
Pt       8.42164222       6.48298341      24.58417373        2       0.00000000       0.00198558       0.00278090       0.05152177
Pt      -0.00000506      -0.00000540      26.91888481        1       0.00000000       0.00002076       0.00013898      -0.03534982
Pt       2.80647421       0.00005361      26.91776991        1       0.00000000      -0.00508070      -0.01180995      -0.00111448
Pt       5.61427900      -0.00224323      26.91811636        1       0.00000000       0.00374473      -0.00888154      -0.00138889
Pt       1.40176083       2.43233564      26.91812537        1       0.00000000      -0.00895913       0.00087399      -0.00165271
Pt       4.21081945       2.43111305      26.90409654        1       0.00000000      -0.00003102       0.00004528       0.00069923
Pt       7.01829726       2.43044221      26.91773780        1       0.00000000       0.01230001       0.00126208      -0.00135901
Pt       2.80768659       4.86286768      26.91772990        1       0.00000000      -0.00718807       0.01052168      -0.00105958
Pt       5.61642665       4.86326531      26.91814268        1       0.00000000       0.00517821       0.00801456      -0.00133539
Pt       8.42164628       4.86225018      26.91920874        1       0.00000000       0.00000168      -0.00017199      -0.03345850
O        4.21082124       2.43112215      30.19490628        0       0.50000000       0.00001901       0.00000632       0.00702373
H        4.21081824       2.43111811      29.20274573        0       0.50000000      -0.00000419      -0.00000185       0.01277494
