38
Lattice="8.421641763931781 0.0 0.0 4.2108208819658905 7.293355709136913 0.0 0.0 0.0 46.87624170604845" Properties=species:S:1:pos:R:3:tags:I:1:initial_magmoms:R:1:forces:R:3 charge=0 spin=0 energy=-194.4143767028507 free_energy=-194.4143767028507 stress="0.010243468917906284 4.5951761507012634e-08 1.7484470760109616e-08 4.5951761507012634e-08 0.010243460536003113 1.5254865814995355e-08 1.7484470760109616e-08 1.5254865814995355e-08 -6.928060611244291e-05" pbc="T T T"
Pt      -0.00000001       0.00000015      19.95723445        4       0.00000000       0.00000284       0.00000006       0.00948547
Pt       2.80721394      -0.00000009      19.95723448        4       0.00000000      -0.00143147      -0.00042914       0.01196400
Pt       5.61442781      -0.00000017      19.95723450        4       0.00000000       0.00051607       0.00038826       0.01170156
Pt       1.40360720       2.43111836      19.95723436        4       0.00000000       0.00007491      -0.00063888       0.01172783
Pt       4.21082078       2.43111836      19.95723446        4       0.00000000       0.00000250       0.00000063       0.01166006
Pt       7.01803484       2.43111844      19.95723431        4       0.00000000       0.00108307      -0.00102984       0.01198171
Pt       2.80721414       4.86223727      19.95723413        4       0.00000000       0.00034468       0.00145748       0.01197635
Pt       5.61442797       4.86223736      19.95723433        4       0.00000000      -0.00059250       0.00025309       0.01170075
Pt       8.42164142       4.86223724      19.95723439        4       0.00000000       0.00000043      -0.00000304       0.01212514
Pt       1.40360727       0.81037261      22.29206790        3       0.00000000      -0.00119984      -0.00260775      -0.03410609
Pt       4.21082126       0.81037249      22.29206793        3       0.00000000      -0.00152610       0.00097914      -0.03877969
Pt       7.01803475       0.81037258      22.29206787        3       0.00000000       0.00286067       0.00026336      -0.03411291
Pt       2.80721449       3.24149123      22.29206778        3       0.00000000       0.00160762       0.00083292      -0.03884793
Pt       5.61442761       3.24149123      22.29206789        3       0.00000000      -0.00009424      -0.00179416      -0.03883259
Pt       8.42164155       3.24149130      22.29206812        3       0.00000000      -0.00115029       0.00398692      -0.03782889
Pt       4.21082090       5.67260997      22.29206743        3       0.00000000      -0.00166004       0.00235042      -0.03409093
Pt       7.01803489       5.67261038      22.29206778        3       0.00000000       0.00401958      -0.00099407      -0.03775067
Pt       9.82524818       5.67261058      22.29206804        3       0.00000000      -0.00285843      -0.00301826      -0.03777730
Pt      -0.00000057       1.62074568      24.58417368        2       0.00000000       0.00117324      -0.00065359       0.05385825
Pt       2.80721445       1.62074549      24.58417387        2       0.00000000      -0.02728562      -0.01796225      -0.01066065
Pt       5.61442780       1.62074538      24.58417368        2       0.00000000       0.02919478      -0.01465933      -0.01069230
Pt       1.40360635       4.05186441      24.58417386        2       0.00000000       0.00139476      -0.00313200       0.05156347
Pt       4.21082088       4.05186391      24.58417389        2       0.00000000      -0.00188557       0.03257743      -0.01070251
Pt       7.01803505       4.05186405      24.58417404        2       0.00000000      -0.00343287       0.00034984       0.05153244
Pt       2.80721273       6.48298348      24.58417381        2       0.00000000       0.00003600       0.00137318       0.05378107
Pt       5.61442805       6.48298330      24.58417394        2       0.00000000      -0.00117744      -0.00067016       0.05378748
Pt       8.42164222       6.48298341      24.58417373        2       0.00000000       0.00198522       0.00278307       0.05151855
Pt      -0.00000395      -0.00000415      26.91888274        1       0.00000000       0.00002675       0.00015830      -0.03533928
Pt       2.80647403       0.00005310      26.91776978        1       0.00000000      -0.00507155      -0.01180823      -0.00111560
Pt       5.61427958      -0.00224356      26.91811614        1       0.00000000       0.00374140      -0.00887307      -0.00139118
Pt       1.40176018       2.43233616      26.91812568        1       0.00000000      -0.00895596       0.00087733      -0.00165086
Pt       4.21081944       2.43111351      26.90409332        1       0.00000000      -0.00003016       0.00004089       0.00072781
Pt       7.01829769       2.43044255      26.91773737        1       0.00000000       0.01229362       0.00126428      -0.00135977
Pt       2.80768647       4.86286881      26.91772963        1       0.00000000      -0.00718043       0.01052136      -0.00105875
Pt       5.61642706       4.86326634      26.91814210        1       0.00000000       0.00517774       0.00801285      -0.00133545
Pt       8.42164685       4.86225092      26.91920697        1       0.00000000       0.00001119      -0.00018407      -0.03345510
O        4.21081861       2.43111813      30.19492082        0       0.50000000      -0.00001411      -0.00001418       0.00693348
H        4.21081851       2.43111701      29.20275906        0       0.50000000      -0.00000035       0.00000149       0.01286273
