38
Lattice="8.421641763931781 0.0 0.0 4.2108208819658905 7.293355709136913 0.0 0.0 0.0 46.87624170604845" Properties=species:S:1:pos:R:3:tags:I:1:initial_magmoms:R:1:forces:R:3 charge=0 spin=0 energy=-194.41468378598057 free_energy=-194.41468378598057 stress="0.010195545852184296 4.085478266802056e-08 -7.420027703375354e-09 4.085478266802056e-08 0.010195526294410229 3.0584585974935408e-09 -7.420027703375354e-09 3.0584585974935408e-09 -0.00015386546147055924" pbc="T T T"
Pt      -0.00000001       0.00000015      19.95723445        4       0.00000000       0.00000334      -0.00000571       0.00971634
Pt       2.80721394      -0.00000009      19.95723448        4       0.00000000      -0.00135394      -0.00031543       0.01206197
Pt       5.61442781      -0.00000017      19.95723450        4       0.00000000       0.00042309       0.00035179       0.01177938
Pt       1.40360720       2.43111836      19.95723436        4       0.00000000       0.00009309      -0.00054837       0.01180635
Pt       4.21082078       2.43111836      19.95723446        4       0.00000000       0.00000264       0.00000307       0.01154053
Pt       7.01803484       2.43111844      19.95723431        4       0.00000000       0.00094632      -0.00102699       0.01208086
Pt       2.80721414       4.86223727      19.95723413        4       0.00000000       0.00040346       0.00134161       0.01206903
Pt       5.61442797       4.86223736      19.95723433        4       0.00000000      -0.00051719       0.00019758       0.01178035
Pt       8.42164142       4.86223724      19.95723439        4       0.00000000       0.00000002      -0.00000008       0.01174356
Pt       1.40360727       0.81037261      22.29206790        3       0.00000000      -0.00140743      -0.00261602      -0.03534470
Pt       4.21082126       0.81037249      22.29206793        3       0.00000000      -0.00150104       0.00105139      -0.03793015
Pt       7.01803475       0.81037258      22.29206787        3       0.00000000       0.00297321       0.00009267      -0.03535830
Pt       2.80721449       3.24149123      22.29206778        3       0.00000000       0.00163085       0.00079090      -0.03805613
Pt       5.61442761       3.24149123      22.29206789        3       0.00000000      -0.00014370      -0.00179479      -0.03803809
Pt       8.42164155       3.24149130      22.29206812        3       0.00000000      -0.00088489       0.00345570      -0.03772076
Pt       4.21082090       5.67260997      22.29206743        3       0.00000000      -0.00156856       0.00252628      -0.03532975
Pt       7.01803489       5.67261038      22.29206778        3       0.00000000       0.00344758      -0.00097064      -0.03758135
Pt       9.82524818       5.67261058      22.29206804        3       0.00000000      -0.00254525      -0.00253692      -0.03761178
Pt      -0.00000057       1.62074568      24.58417368        2       0.00000000       0.00125406       0.01119516       0.02969351
Pt       2.80721445       1.62074549      24.58417387        2       0.00000000      -0.02647381      -0.01784128      -0.01249685
Pt       5.61442780       1.62074538      24.58417368        2       0.00000000       0.02857996      -0.01422726      -0.01251181
Pt       1.40360635       4.05186441      24.58417386        2       0.00000000       0.01041819      -0.00814871       0.03226573
Pt       4.21082088       4.05186391      24.58417389        2       0.00000000      -0.00207398       0.03184750      -0.01246501
Pt       7.01803505       4.05186405      24.58417404        2       0.00000000      -0.01239292      -0.00480841       0.03224381
Pt       2.80721273       6.48298348      24.58417381        2       0.00000000      -0.01025980      -0.00444863       0.02957459
Pt       5.61442805       6.48298330      24.58417394        2       0.00000000       0.00903096      -0.00662017       0.02955154
Pt       8.42164222       6.48298341      24.58417373        2       0.00000000       0.00191335       0.01305600       0.03208409
Pt      -0.00000111       0.00003105      26.90630453        1       0.00000000      -0.00000956       0.00024826       0.03121429
Pt       2.80587818      -0.00121931      26.91706136        1       0.00000000       0.00249204       0.00199748       0.00126957
Pt       5.61452136      -0.00272330      26.91756275        1       0.00000000      -0.00255340       0.00190735       0.00025447
Pt       1.40137367       2.43228812      26.91750864        1       0.00000000       0.00273337       0.00135406       0.00014557
Pt       4.21082115       2.43112153      26.90207782        1       0.00000000      -0.00000555      -0.00000705       0.03027467
Pt       7.01957110       2.43048874      26.91696603        1       0.00000000      -0.00275976       0.00128445       0.00115596
Pt       2.80701341       4.86408597      26.91704602        1       0.00000000       0.00028582      -0.00324943       0.00121825
Pt       5.61656731       4.86379888      26.91760400        1       0.00000000      -0.00019853      -0.00329312       0.00024788
Pt       8.42164121       4.86220665      26.90866471        1       0.00000000       0.00001608      -0.00024136       0.02218026
O        4.21082415       2.43111319      30.23261531        0       0.50000000       0.00001059      -0.00001498      -0.00563374
H        4.21081566       2.43112577      29.24134701        0       0.50000000      -0.00000839       0.00001400      -0.00187379
