38
Lattice="8.421641763931781 0.0 0.0 4.2108208819658905 7.293355709136913 0.0 0.0 0.0 46.87624170604845" Properties=species:S:1:pos:R:3:tags:I:1:initial_magmoms:R:1:forces:R:3 charge=0 spin=0 energy=-194.41438623959385 free_energy=-194.41438623959385 stress="0.010243390686810017 2.8191617928996493e-08 -6.037198296837687e-09 2.8191617928996493e-08 0.010243388824164867 -8.65455207499366e-11 -6.037198296837687e-09 -8.65455207499366e-11 -6.944985216250643e-05" pbc="T T T"
Pt      -0.00000001       0.00000015      19.95723445        4       0.00000000       0.00000314      -0.00000003       0.00948638
Pt       2.80721394      -0.00000009      19.95723448        4       0.00000000      -0.00143143      -0.00042906       0.01196392
Pt       5.61442781      -0.00000017      19.95723450        4       0.00000000       0.00051577       0.00038815       0.01170183
Pt       1.40360720       2.43111836      19.95723436        4       0.00000000       0.00007476      -0.00063881       0.01172813
Pt       4.21082078       2.43111836      19.95723446        4       0.00000000       0.00000258       0.00000073       0.01165979
Pt       7.01803484       2.43111844      19.95723431        4       0.00000000       0.00108327      -0.00102957       0.01198188
Pt       2.80721414       4.86223727      19.95723413        4       0.00000000       0.00034487       0.00145739       0.01197692
Pt       5.61442797       4.86223736      19.95723433        4       0.00000000      -0.00059233       0.00025308       0.01170075
Pt       8.42164142       4.86223724      19.95723439        4       0.00000000       0.00000028      -0.00000315       0.01212463
Pt       1.40360727       0.81037261      22.29206790        3       0.00000000      -0.00119910      -0.00260757      -0.03410590
Pt       4.21082126       0.81037249      22.29206793        3       0.00000000      -0.00152572       0.00097909      -0.03878137
Pt       7.01803475       0.81037258      22.29206787        3       0.00000000       0.00286003       0.00026369      -0.03411220
Pt       2.80721449       3.24149123      22.29206778        3       0.00000000       0.00160784       0.00083238      -0.03884994
Pt       5.61442761       3.24149123      22.29206789        3       0.00000000      -0.00009441      -0.00179454      -0.03883348
Pt       8.42164155       3.24149130      22.29206812        3       0.00000000      -0.00114944       0.00398734      -0.03782867
Pt       4.21082090       5.67260997      22.29206743        3       0.00000000      -0.00165990       0.00235010      -0.03409059
Pt       7.01803489       5.67261038      22.29206778        3       0.00000000       0.00402031      -0.00099459      -0.03775187
Pt       9.82524818       5.67261058      22.29206804        3       0.00000000      -0.00285845      -0.00301809      -0.03777739
Pt      -0.00000057       1.62074568      24.58417368        2       0.00000000       0.00117189      -0.00064697       0.05384326
Pt       2.80721445       1.62074549      24.58417387        2       0.00000000      -0.02729822      -0.01797030      -0.01068206
Pt       5.61442780       1.62074538      24.58417368        2       0.00000000       0.02920799      -0.01466604      -0.01071177
Pt       1.40360635       4.05186441      24.58417386        2       0.00000000       0.00139579      -0.00313492       0.05155183
Pt       4.21082088       4.05186391      24.58417389        2       0.00000000      -0.00188452       0.03259110      -0.01072619
Pt       7.01803505       4.05186405      24.58417404        2       0.00000000      -0.00343698       0.00034590       0.05152036
Pt       2.80721273       6.48298348      24.58417381        2       0.00000000       0.00002902       0.00137164       0.05376139
Pt       5.61442805       6.48298330      24.58417394        2       0.00000000      -0.00117206      -0.00067197       0.05377424
Pt       8.42164222       6.48298341      24.58417373        2       0.00000000       0.00198494       0.00278814       0.05150736
Pt      -0.00000452      -0.00000481      26.91887529        1       0.00000000       0.00001493       0.00015362      -0.03530419
Pt       2.80647328       0.00005274      26.91776956        1       0.00000000      -0.00507141      -0.01180445      -0.00111734
Pt       5.61427969      -0.00224388      26.91811645        1       0.00000000       0.00373433      -0.00887485      -0.00139050
Pt       1.40175964       2.43233565      26.91812444        1       0.00000000      -0.00895140       0.00087688      -0.00165252
Pt       4.21081941       2.43111328      26.90407980        1       0.00000000      -0.00003233       0.00004031       0.00081303
Pt       7.01829855       2.43044197      26.91773710        1       0.00000000       0.01228916       0.00126817      -0.00135994
Pt       2.80768614       4.86286931      26.91772911        1       0.00000000      -0.00718431       0.01051491      -0.00105144
Pt       5.61642646       4.86326630      26.91814270        1       0.00000000       0.00517802       0.00800995      -0.00133592
Pt       8.42164562       4.86225133      26.91920059        1       0.00000000       0.00001905      -0.00019018      -0.03342904
O        4.21082236       2.43111876      30.19495186        0       0.50000000       0.00000908       0.00000115       0.00705647
H        4.21081810       2.43111831      29.20279284        0       0.50000000      -0.00000474       0.00000115       0.01274017
