38
Lattice="8.421641763931781 0.0 0.0 4.2108208819658905 7.293355709136913 0.0 0.0 0.0 46.87624170604845" Properties=species:S:1:pos:R:3:tags:I:1:initial_magmoms:R:1:forces:R:3 charge=0 spin=0 energy=-194.4149126678165 free_energy=-194.4149126678165 stress="0.010227108374238014 8.247346983125681e-08 -1.2197127752244796e-08 8.247346983125681e-08 0.010227086022496223 -1.912255909175542e-10 -1.2197127752244796e-08 -1.912255909175542e-10 -0.0001115686318371445" pbc="T T T"
Pt      -0.00000001       0.00000015      19.95723445        4       0.00000000       0.00000834      -0.00000619       0.00977306
Pt       2.80721394      -0.00000009      19.95723448        4       0.00000000      -0.00137804      -0.00031782       0.01202350
Pt       5.61442781      -0.00000017      19.95723450        4       0.00000000       0.00043763       0.00037038       0.01174636
Pt       1.40360720       2.43111836      19.95723436        4       0.00000000       0.00010354      -0.00057925       0.01177264
Pt       4.21082078       2.43111836      19.95723446        4       0.00000000      -0.00000160       0.00000114       0.01172995
Pt       7.01803484       2.43111844      19.95723431        4       0.00000000       0.00096130      -0.00104709       0.01204585
Pt       2.80721414       4.86223727      19.95723413        4       0.00000000       0.00041045       0.00136296       0.01202948
Pt       5.61442797       4.86223736      19.95723433        4       0.00000000      -0.00054375       0.00020754       0.01174655
Pt       8.42164142       4.86223724      19.95723439        4       0.00000000      -0.00000078       0.00000362       0.01195964
Pt       1.40360727       0.81037261      22.29206790        3       0.00000000      -0.00146517      -0.00269976      -0.03534535
Pt       4.21082126       0.81037249      22.29206793        3       0.00000000      -0.00156067       0.00102496      -0.03789387
Pt       7.01803475       0.81037258      22.29206787        3       0.00000000       0.00308073       0.00008829      -0.03543505
Pt       2.80721449       3.24149123      22.29206778        3       0.00000000       0.00162304       0.00087058      -0.03804819
Pt       5.61442761       3.24149123      22.29206789        3       0.00000000      -0.00008823      -0.00182939      -0.03802929
Pt       8.42164155       3.24149130      22.29206812        3       0.00000000      -0.00095053       0.00355102      -0.03788907
Pt       4.21082090       5.67260997      22.29206743        3       0.00000000      -0.00163556       0.00261261      -0.03537570
Pt       7.01803489       5.67261038      22.29206778        3       0.00000000       0.00356373      -0.00097420      -0.03771471
Pt       9.82524818       5.67261058      22.29206804        3       0.00000000      -0.00259816      -0.00263466      -0.03777377
Pt      -0.00000057       1.62074568      24.58417368        2       0.00000000       0.00103524       0.00571703       0.03954306
Pt       2.80721445       1.62074549      24.58417387        2       0.00000000      -0.02150935      -0.01515475      -0.00397570
Pt       5.61442780       1.62074538      24.58417368        2       0.00000000       0.02387071      -0.01136268      -0.00400066
Pt       1.40360635       4.05186441      24.58417386        2       0.00000000       0.00648620      -0.00572281       0.04052873
Pt       4.21082088       4.05186391      24.58417389        2       0.00000000      -0.00215283       0.02624403      -0.00391326
Pt       7.01803505       4.05186405      24.58417404        2       0.00000000      -0.00832544      -0.00264736       0.04076274
Pt       2.80721273       6.48298348      24.58417381        2       0.00000000      -0.00537694      -0.00180251       0.03918491
Pt       5.61442805       6.48298330      24.58417394        2       0.00000000       0.00437977      -0.00370030       0.03924399
Pt       8.42164222       6.48298341      24.58417373        2       0.00000000       0.00174438       0.00842209       0.04024955
Pt       0.00001854       0.00001577      26.91183258        1       0.00000000       0.00003198       0.00050790       0.00178176
Pt       2.80603295      -0.00105054      26.91724984        1       0.00000000       0.00113281       0.00056956       0.00085753
Pt       5.61447628      -0.00272324      26.91752345        1       0.00000000      -0.00148616       0.00135162       0.00094480
Pt       1.40151064       2.43228360      26.91746331        1       0.00000000       0.00102069       0.00108905       0.00074945
Pt       4.21081417       2.43110637      26.90733225        1       0.00000000       0.00030247       0.00011748      -0.00257446
Pt       7.01933751       2.43048264      26.91716730        1       0.00000000      -0.00069488       0.00116852       0.00052156
Pt       2.80712371       4.86392613      26.91722097        1       0.00000000      -0.00035713      -0.00175915       0.00083588
Pt       5.61651130       4.86380023      26.91758832        1       0.00000000       0.00046116      -0.00241539       0.00075581
Pt       8.42169272       4.86223531      26.91351897        1       0.00000000      -0.00025098      -0.00062762      -0.00334039
O        4.21134973       2.43111837      30.22600645        0       0.50000000       0.00087812      -0.00000014       0.03847911
H        4.21004849       2.43111429      29.23544046        0       0.50000000      -0.00115597       0.00000070      -0.03795596
