38
Lattice="8.421641763931781 0.0 0.0 4.2108208819658905 7.293355709136913 0.0 0.0 0.0 46.87624170604845" Properties=species:S:1:pos:R:3:tags:I:1:initial_magmoms:R:1:forces:R:3 charge=0 spin=0 energy=-194.41468950802647 free_energy=-194.41468950802647 stress="0.010195529088377953 4.678211951159028e-08 1.9755054481152e-08 4.678211951159028e-08 0.010195472277700901 -6.045292710865624e-09 1.9755054481152e-08 -6.045292710865624e-09 -0.0001539271470392123" pbc="T T T"
Pt      -0.00000001       0.00000015      19.95723445        4       0.00000000       0.00000294      -0.00000592       0.00971596
Pt       2.80721394      -0.00000009      19.95723448        4       0.00000000      -0.00135397      -0.00031536       0.01206195
Pt       5.61442781      -0.00000017      19.95723450        4       0.00000000       0.00042329       0.00035202       0.01177906
Pt       1.40360720       2.43111836      19.95723436        4       0.00000000       0.00009307      -0.00054826       0.01180620
Pt       4.21082078       2.43111836      19.95723446        4       0.00000000       0.00000277       0.00000310       0.01154036
Pt       7.01803484       2.43111844      19.95723431        4       0.00000000       0.00094638      -0.00102740       0.01208097
Pt       2.80721414       4.86223727      19.95723413        4       0.00000000       0.00040347       0.00134189       0.01206875
Pt       5.61442797       4.86223736      19.95723433        4       0.00000000      -0.00051729       0.00019760       0.01178071
Pt       8.42164142       4.86223724      19.95723439        4       0.00000000       0.00000019      -0.00000011       0.01174346
Pt       1.40360727       0.81037261      22.29206790        3       0.00000000      -0.00140722      -0.00261621      -0.03534313
Pt       4.21082126       0.81037249      22.29206793        3       0.00000000      -0.00150158       0.00105099      -0.03793062
Pt       7.01803475       0.81037258      22.29206787        3       0.00000000       0.00297351       0.00009217      -0.03535802
Pt       2.80721449       3.24149123      22.29206778        3       0.00000000       0.00163176       0.00079025      -0.03805654
Pt       5.61442761       3.24149123      22.29206789        3       0.00000000      -0.00014399      -0.00179447      -0.03803876
Pt       8.42164155       3.24149130      22.29206812        3       0.00000000      -0.00088433       0.00345619      -0.03772090
Pt       4.21082090       5.67260997      22.29206743        3       0.00000000      -0.00156909       0.00252591      -0.03532954
Pt       7.01803489       5.67261038      22.29206778        3       0.00000000       0.00344744      -0.00097005      -0.03758046
Pt       9.82524818       5.67261058      22.29206804        3       0.00000000      -0.00254573      -0.00253742      -0.03761217
Pt      -0.00000057       1.62074568      24.58417368        2       0.00000000       0.00125472       0.01119698       0.02968871
Pt       2.80721445       1.62074549      24.58417387        2       0.00000000      -0.02647757      -0.01784208      -0.01250227
Pt       5.61442780       1.62074538      24.58417368        2       0.00000000       0.02858377      -0.01422966      -0.01252158
Pt       1.40360635       4.05186441      24.58417386        2       0.00000000       0.01041944      -0.00814919       0.03226316
Pt       4.21082088       4.05186391      24.58417389        2       0.00000000      -0.00207515       0.03185224      -0.01247289
Pt       7.01803505       4.05186405      24.58417404        2       0.00000000      -0.01239510      -0.00481030       0.03223976
Pt       2.80721273       6.48298348      24.58417381        2       0.00000000      -0.01026040      -0.00444968       0.02957209
Pt       5.61442805       6.48298330      24.58417394        2       0.00000000       0.00903473      -0.00662142       0.02954867
Pt       8.42164222       6.48298341      24.58417373        2       0.00000000       0.00191315       0.01305784       0.03208027
Pt       0.00000005       0.00003162      26.90630380        1       0.00000000      -0.00000497       0.00025065       0.03121887
Pt       2.80587827      -0.00121885      26.91706179        1       0.00000000       0.00248892       0.00199116       0.00126940
Pt       5.61452130      -0.00272340      26.91756283        1       0.00000000      -0.00255004       0.00190496       0.00025407
Pt       1.40137392       2.43228847      26.91750915        1       0.00000000       0.00273322       0.00135586       0.00014546
Pt       4.21082102       2.43112165      26.90207495        1       0.00000000      -0.00000719      -0.00000404       0.03028676
Pt       7.01957091       2.43048829      26.91696618        1       0.00000000      -0.00275663       0.00128819       0.00115746
Pt       2.80701326       4.86408662      26.91704563        1       0.00000000       0.00028497      -0.00324910       0.00121656
Pt       5.61656659       4.86379882      26.91760412        1       0.00000000      -0.00019380      -0.00328755       0.00024707
Pt       8.42164015       4.86220703      26.90866292        1       0.00000000       0.00002572      -0.00025520       0.02218331
O        4.21082679       2.43111290      30.23259513        0       0.50000000      -0.00001044      -0.00000731      -0.00560423
H        4.21081417       2.43112426      29.24132798        0       0.50000000      -0.00000882       0.00001263      -0.00187811
