38
Lattice="8.421641763931781 0.0 0.0 4.2108208819658905 7.293355709136913 0.0 0.0 0.0 46.87624170604845" Properties=species:S:1:pos:R:3:tags:I:1:initial_magmoms:R:1:forces:R:3 charge=0 spin=0 energy=-194.41437288815342 free_energy=-194.41437288815342 stress="0.01024347823113203 4.6440131740155266e-08 -2.366111750973232e-08 4.6440131740155266e-08 0.010243473574519157 -2.805005294703733e-08 -2.366111750973232e-08 -2.805005294703733e-08 -6.929033406777307e-05" pbc="T T T"
Pt      -0.00000001       0.00000015      19.95723445        4       0.00000000       0.00000291       0.00000003       0.00948572
Pt       2.80721394      -0.00000009      19.95723448        4       0.00000000      -0.00143152      -0.00042882       0.01196394
Pt       5.61442781      -0.00000017      19.95723450        4       0.00000000       0.00051608       0.00038830       0.01170179
Pt       1.40360720       2.43111836      19.95723436        4       0.00000000       0.00007502      -0.00063870       0.01172783
Pt       4.21082078       2.43111836      19.95723446        4       0.00000000       0.00000237       0.00000045       0.01166013
Pt       7.01803484       2.43111844      19.95723431        4       0.00000000       0.00108324      -0.00102972       0.01198148
Pt       2.80721414       4.86223727      19.95723413        4       0.00000000       0.00034463       0.00145739       0.01197671
Pt       5.61442797       4.86223736      19.95723433        4       0.00000000      -0.00059250       0.00025290       0.01170071
Pt       8.42164142       4.86223724      19.95723439        4       0.00000000       0.00000042      -0.00000312       0.01212526
Pt       1.40360727       0.81037261      22.29206790        3       0.00000000      -0.00120007      -0.00260847      -0.03410690
Pt       4.21082126       0.81037249      22.29206793        3       0.00000000      -0.00152645       0.00097846      -0.03877940
Pt       7.01803475       0.81037258      22.29206787        3       0.00000000       0.00286077       0.00026309      -0.03411408
Pt       2.80721449       3.24149123      22.29206778        3       0.00000000       0.00160781       0.00083315      -0.03884849
Pt       5.61442761       3.24149123      22.29206789        3       0.00000000      -0.00009418      -0.00179441      -0.03883165
Pt       8.42164155       3.24149130      22.29206812        3       0.00000000      -0.00114948       0.00398675      -0.03782833
Pt       4.21082090       5.67260997      22.29206743        3       0.00000000      -0.00166076       0.00235020      -0.03409080
Pt       7.01803489       5.67261038      22.29206778        3       0.00000000       0.00402009      -0.00099432      -0.03775099
Pt       9.82524818       5.67261058      22.29206804        3       0.00000000      -0.00285763      -0.00301813      -0.03777680
Pt      -0.00000057       1.62074568      24.58417368        2       0.00000000       0.00117286      -0.00065320       0.05385948
Pt       2.80721445       1.62074549      24.58417387        2       0.00000000      -0.02728161      -0.01795918      -0.01065555
Pt       5.61442780       1.62074538      24.58417368        2       0.00000000       0.02919186      -0.01465727      -0.01068910
Pt       1.40360635       4.05186441      24.58417386        2       0.00000000       0.00139287      -0.00313157       0.05156562
Pt       4.21082088       4.05186391      24.58417389        2       0.00000000      -0.00188616       0.03257287      -0.01069790
Pt       7.01803505       4.05186405      24.58417404        2       0.00000000      -0.00343320       0.00034956       0.05153023
Pt       2.80721273       6.48298348      24.58417381        2       0.00000000       0.00003487       0.00137264       0.05378382
Pt       5.61442805       6.48298330      24.58417394        2       0.00000000      -0.00117823      -0.00066917       0.05379183
Pt       8.42164222       6.48298341      24.58417373        2       0.00000000       0.00198426       0.00278456       0.05151733
Pt      -0.00000434      -0.00000365      26.91888248        1       0.00000000       0.00001101       0.00013706      -0.03533604
Pt       2.80647397       0.00005421      26.91776996        1       0.00000000      -0.00507755      -0.01181146      -0.00111469
Pt       5.61427920      -0.00224306      26.91811641        1       0.00000000       0.00374382      -0.00887938      -0.00138922
Pt       1.40176064       2.43233629      26.91812530        1       0.00000000      -0.00895761       0.00087415      -0.00165169
Pt       4.21081936       2.43111312      26.90409727        1       0.00000000      -0.00003045       0.00004714       0.00070909
Pt       7.01829726       2.43044236      26.91773711        1       0.00000000       0.01229650       0.00126271      -0.00135829
Pt       2.80768614       4.86286780      26.91772977        1       0.00000000      -0.00718305       0.01052600      -0.00106090
Pt       5.61642579       4.86326566      26.91814261        1       0.00000000       0.00517678       0.00801826      -0.00133590
Pt       8.42164487       4.86225201      26.91920734        1       0.00000000       0.00000447      -0.00020354      -0.03345994
O        4.21082382       2.43111618      30.19492508        0       0.50000000       0.00002468       0.00002382       0.00701050
H        4.21081798       2.43111814      29.20276452        0       0.50000000      -0.00000674       0.00000115       0.01278495
