38
Lattice="8.421641763931781 0.0 0.0 4.2108208819658905 7.293355709136913 0.0 0.0 0.0 46.87624170604845" Properties=species:S:1:pos:R:3:tags:I:1:initial_magmoms:R:1:forces:R:3 charge=0 spin=0 energy=-194.41481157833897 free_energy=-194.41481157833897 stress="0.01023387536406517 2.614840788339734e-08 1.2581009123380227e-08 2.614840788339734e-08 0.010233867913484573 5.697806386706361e-07 1.2581009123380227e-08 5.697806386706361e-07 -6.952950934646651e-05" pbc="T T T"
Pt      -0.00000001       0.00000015      19.95723445        4       0.00000000       0.00000251       0.00000652       0.00966696
Pt       2.80721394      -0.00000009      19.95723448        4       0.00000000      -0.00137598      -0.00031107       0.01199106
Pt       5.61442781      -0.00000017      19.95723450        4       0.00000000       0.00052929       0.00033587       0.01173201
Pt       1.40360720       2.43111836      19.95723436        4       0.00000000       0.00001986      -0.00061556       0.01175764
Pt       4.21082078       2.43111836      19.95723446        4       0.00000000       0.00000185      -0.00000458       0.01178678
Pt       7.01803484       2.43111844      19.95723431        4       0.00000000       0.00095139      -0.00103020       0.01200620
Pt       2.80721414       4.86223727      19.95723413        4       0.00000000       0.00042369       0.00133930       0.01200567
Pt       5.61442797       4.86223736      19.95723433        4       0.00000000      -0.00055347       0.00028264       0.01172976
Pt       8.42164142       4.86223724      19.95723439        4       0.00000000       0.00000016      -0.00000397       0.01205830
Pt       1.40360727       0.81037261      22.29206790        3       0.00000000      -0.00148545      -0.00276015      -0.03525080
Pt       4.21082126       0.81037249      22.29206793        3       0.00000000      -0.00143625       0.00098036      -0.03810257
Pt       7.01803475       0.81037258      22.29206787        3       0.00000000       0.00313503       0.00009492      -0.03524610
Pt       2.80721449       3.24149123      22.29206778        3       0.00000000       0.00159287       0.00072842      -0.03810805
Pt       5.61442761       3.24149123      22.29206789        3       0.00000000      -0.00017057      -0.00174100      -0.03809356
Pt       8.42164155       3.24149130      22.29206812        3       0.00000000      -0.00114094       0.00365334      -0.03777231
Pt       4.21082090       5.67260997      22.29206743        3       0.00000000      -0.00165405       0.00268753      -0.03521740
Pt       7.01803489       5.67261038      22.29206778        3       0.00000000       0.00370489      -0.00081329      -0.03776112
Pt       9.82524818       5.67261058      22.29206804        3       0.00000000      -0.00255717      -0.00282332      -0.03778208
Pt      -0.00000057       1.62074568      24.58417368        2       0.00000000       0.00135234       0.00283253       0.04346810
Pt       2.80721445       1.62074549      24.58417387        2       0.00000000      -0.02143879      -0.01344687      -0.00285618
Pt       5.61442780       1.62074538      24.58417368        2       0.00000000       0.02256778      -0.01151940      -0.00285454
Pt       1.40360635       4.05186441      24.58417386        2       0.00000000       0.00463135      -0.00414179       0.04309778
Pt       4.21082088       4.05186391      24.58417389        2       0.00000000      -0.00107486       0.02522094      -0.00300359
Pt       7.01803505       4.05186405      24.58417404        2       0.00000000      -0.00576916      -0.00220504       0.04309437
Pt       2.80721273       6.48298348      24.58417381        2       0.00000000      -0.00304376      -0.00023561       0.04316954
Pt       5.61442805       6.48298330      24.58417394        2       0.00000000       0.00169193      -0.00263591       0.04317982
Pt       8.42164222       6.48298341      24.58417373        2       0.00000000       0.00110207       0.00615553       0.04301705
Pt      -0.00000401      -0.00010174      26.91445585        1       0.00000000       0.00001911       0.00044838      -0.01244150
Pt       2.80539563       0.00020258      26.91686748        1       0.00000000       0.00237800      -0.00489758       0.00272249
Pt       5.61380349      -0.00366666      26.91740064        1       0.00000000       0.00212218       0.00400596       0.00151685
Pt       1.40061648       2.43355719      26.91752980        1       0.00000000       0.00364517      -0.00456304       0.00082146
Pt       4.21082424       2.43111166      26.90852632        1       0.00000000      -0.00004689       0.00002621      -0.01228487
Pt       7.01884938       2.42954285      26.91698487        1       0.00000000       0.00200510       0.00376669       0.00191494
Pt       2.80819812       4.86362323      26.91683826        1       0.00000000      -0.00424372       0.00108497       0.00274567
Pt       5.61806609       4.86346369      26.91743397        1       0.00000000      -0.00588641       0.00060550       0.00157014
Pt       8.42165081       4.86235601      26.91572692        1       0.00000000       0.00001300      -0.00050403      -0.01402180
O        4.21080626       2.43111434      30.21784361        0       0.50000000      -0.00002331      -0.00000430      -0.04231846
H        4.21082232       2.43111804      29.22500391        0       0.50000000       0.00001114       0.00000112       0.04806272
