38
Lattice="8.421641763931781 0.0 0.0 4.2108208819658905 7.293355709136913 0.0 0.0 0.0 46.87624170604845" Properties=species:S:1:pos:R:3:tags:I:1:initial_magmoms:R:1:forces:R:3 charge=0 spin=0 energy=-194.4149183898624 free_energy=-194.4149183898624 stress="0.010227062739431858 8.702000542371024e-08 -1.7427360887722898e-08 8.702000542371024e-08 0.010226997546851635 1.0808055783684267e-08 -1.7427360887722898e-08 1.0808055783684267e-08 -0.00011174070095876232" pbc="T T T"
Pt      -0.00000001       0.00000015      19.95723445        4       0.00000000       0.00000867      -0.00000623       0.00977270
Pt       2.80721394      -0.00000009      19.95723448        4       0.00000000      -0.00137807      -0.00031784       0.01202357
Pt       5.61442781      -0.00000017      19.95723450        4       0.00000000       0.00043752       0.00037038       0.01174649
Pt       1.40360720       2.43111836      19.95723436        4       0.00000000       0.00010367      -0.00057943       0.01177278
Pt       4.21082078       2.43111836      19.95723446        4       0.00000000      -0.00000150       0.00000124       0.01173018
Pt       7.01803484       2.43111844      19.95723431        4       0.00000000       0.00096148      -0.00104707       0.01204602
Pt       2.80721414       4.86223727      19.95723413        4       0.00000000       0.00041057       0.00136305       0.01202965
Pt       5.61442797       4.86223736      19.95723433        4       0.00000000      -0.00054381       0.00020782       0.01174653
Pt       8.42164142       4.86223724      19.95723439        4       0.00000000      -0.00000086       0.00000397       0.01195957
Pt       1.40360727       0.81037261      22.29206790        3       0.00000000      -0.00146493      -0.00270075      -0.03534504
Pt       4.21082126       0.81037249      22.29206793        3       0.00000000      -0.00155976       0.00102543      -0.03789404
Pt       7.01803475       0.81037258      22.29206787        3       0.00000000       0.00308012       0.00008816      -0.03543320
Pt       2.80721449       3.24149123      22.29206778        3       0.00000000       0.00162323       0.00087054      -0.03804825
Pt       5.61442761       3.24149123      22.29206789        3       0.00000000      -0.00008786      -0.00182974      -0.03802904
Pt       8.42164155       3.24149130      22.29206812        3       0.00000000      -0.00095065       0.00355101      -0.03788739
Pt       4.21082090       5.67260997      22.29206743        3       0.00000000      -0.00163549       0.00261251      -0.03537642
Pt       7.01803489       5.67261038      22.29206778        3       0.00000000       0.00356397      -0.00097444      -0.03771417
Pt       9.82524818       5.67261058      22.29206804        3       0.00000000      -0.00259767      -0.00263436      -0.03777353
Pt      -0.00000057       1.62074568      24.58417368        2       0.00000000       0.00103603       0.00572206       0.03952903
Pt       2.80721445       1.62074549      24.58417387        2       0.00000000      -0.02151042      -0.01515324      -0.00398114
Pt       5.61442780       1.62074538      24.58417368        2       0.00000000       0.02387027      -0.01136320      -0.00401096
Pt       1.40360635       4.05186441      24.58417386        2       0.00000000       0.00648630      -0.00572392       0.04052309
Pt       4.21082088       4.05186391      24.58417389        2       0.00000000      -0.00215434       0.02624625      -0.00392578
Pt       7.01803505       4.05186405      24.58417404        2       0.00000000      -0.00832801      -0.00264848       0.04074988
Pt       2.80721273       6.48298348      24.58417381        2       0.00000000      -0.00538117      -0.00180462       0.03917034
Pt       5.61442805       6.48298330      24.58417394        2       0.00000000       0.00438238      -0.00370120       0.03922769
Pt       8.42164222       6.48298341      24.58417373        2       0.00000000       0.00174412       0.00842104       0.04024123
Pt       0.00001709       0.00001625      26.91182655        1       0.00000000       0.00003627       0.00052489       0.00180063
Pt       2.80603264      -0.00105118      26.91724839        1       0.00000000       0.00113367       0.00057568       0.00086501
Pt       5.61447594      -0.00272347      26.91752259        1       0.00000000      -0.00148922       0.00134886       0.00095254
Pt       1.40151021       2.43228394      26.91746282        1       0.00000000       0.00102813       0.00108976       0.00074972
Pt       4.21081472       2.43110630      26.90732983        1       0.00000000       0.00029020       0.00012021      -0.00258401
Pt       7.01933670       2.43048294      26.91716616        1       0.00000000      -0.00069507       0.00116743       0.00053208
Pt       2.80712298       4.86392697      26.91721959        1       0.00000000      -0.00035916      -0.00176597       0.00084385
Pt       5.61651094       4.86380139      26.91758686        1       0.00000000       0.00045644      -0.00241936       0.00076560
Pt       8.42169034       4.86223313      26.91351633        1       0.00000000      -0.00024049      -0.00062392      -0.00333918
O        4.21135406       2.43113577      30.22597243        0       0.50000000       0.00088399       0.00001277       0.03868692
H        4.21005052       2.43109552      29.23541185        0       0.50000000      -0.00115847      -0.00002936      -0.03812305
