38
Lattice="8.421641763931781 0.0 0.0 4.2108208819658905 7.293355709136913 0.0 0.0 0.0 46.87624170604845" Properties=species:S:1:pos:R:3:tags:I:1:initial_magmoms:R:1:forces:R:3 charge=0 spin=0 energy=-194.41481157833897 free_energy=-194.41481157833897 stress="0.010233834385871887 6.325185353261986e-08 7.403360591240471e-09 6.325185353261986e-08 0.010233879089355469 5.545381327465293e-07 7.403360591240471e-09 5.545381327465293e-07 -6.953931733733043e-05" pbc="T T T"
Pt      -0.00000001       0.00000015      19.95723445        4       0.00000000       0.00000251       0.00000618       0.00966662
Pt       2.80721394      -0.00000009      19.95723448        4       0.00000000      -0.00137618      -0.00031099       0.01199112
Pt       5.61442781      -0.00000017      19.95723450        4       0.00000000       0.00052923       0.00033561       0.01173209
Pt       1.40360720       2.43111836      19.95723436        4       0.00000000       0.00001995      -0.00061530       0.01175747
Pt       4.21082078       2.43111836      19.95723446        4       0.00000000       0.00000166      -0.00000452       0.01178710
Pt       7.01803484       2.43111844      19.95723431        4       0.00000000       0.00095160      -0.00103023       0.01200605
Pt       2.80721414       4.86223727      19.95723413        4       0.00000000       0.00042336       0.00133922       0.01200554
Pt       5.61442797       4.86223736      19.95723433        4       0.00000000      -0.00055333       0.00028285       0.01172982
Pt       8.42164142       4.86223724      19.95723439        4       0.00000000       0.00000036      -0.00000428       0.01205805
Pt       1.40360727       0.81037261      22.29206790        3       0.00000000      -0.00148501      -0.00276026      -0.03525240
Pt       4.21082126       0.81037249      22.29206793        3       0.00000000      -0.00143588       0.00098078      -0.03810146
Pt       7.01803475       0.81037258      22.29206787        3       0.00000000       0.00313452       0.00009455      -0.03524499
Pt       2.80721449       3.24149123      22.29206778        3       0.00000000       0.00159365       0.00072726      -0.03810829
Pt       5.61442761       3.24149123      22.29206789        3       0.00000000      -0.00017013      -0.00174144      -0.03809267
Pt       8.42164155       3.24149130      22.29206812        3       0.00000000      -0.00114060       0.00365260      -0.03777262
Pt       4.21082090       5.67260997      22.29206743        3       0.00000000      -0.00165444       0.00268745      -0.03521803
Pt       7.01803489       5.67261038      22.29206778        3       0.00000000       0.00370440      -0.00081370      -0.03776073
Pt       9.82524818       5.67261058      22.29206804        3       0.00000000      -0.00255662      -0.00282267      -0.03778203
Pt      -0.00000057       1.62074568      24.58417368        2       0.00000000       0.00134795       0.00283439       0.04346621
Pt       2.80721445       1.62074549      24.58417387        2       0.00000000      -0.02143529      -0.01344531      -0.00285930
Pt       5.61442780       1.62074538      24.58417368        2       0.00000000       0.02256841      -0.01151737      -0.00285016
Pt       1.40360635       4.05186441      24.58417386        2       0.00000000       0.00463053      -0.00413822       0.04309773
Pt       4.21082088       4.05186391      24.58417389        2       0.00000000      -0.00107585       0.02522081      -0.00300327
Pt       7.01803505       4.05186405      24.58417404        2       0.00000000      -0.00576983      -0.00220629       0.04309356
Pt       2.80721273       6.48298348      24.58417381        2       0.00000000      -0.00304690      -0.00023662       0.04316586
Pt       5.61442805       6.48298330      24.58417394        2       0.00000000       0.00169195      -0.00263774       0.04317335
Pt       8.42164222       6.48298341      24.58417373        2       0.00000000       0.00110439       0.00615497       0.04301505
Pt      -0.00000408      -0.00010104      26.91445434        1       0.00000000       0.00003375       0.00042846      -0.01243979
Pt       2.80539663       0.00020248      26.91686547        1       0.00000000       0.00237535      -0.00489548       0.00273012
Pt       5.61380277      -0.00366620      26.91740100        1       0.00000000       0.00212193       0.00400457       0.00151789
Pt       1.40061705       2.43355743      26.91752723        1       0.00000000       0.00364178      -0.00456159       0.00082860
Pt       4.21082507       2.43111241      26.90852547        1       0.00000000      -0.00005074       0.00002222      -0.01228007
Pt       7.01884943       2.42954301      26.91698688        1       0.00000000       0.00200609       0.00376372       0.00190646
Pt       2.80819705       4.86362410      26.91683713        1       0.00000000      -0.00424348       0.00108273       0.00274276
Pt       5.61806553       4.86346371      26.91743433        1       0.00000000      -0.00588489       0.00060563       0.00157067
Pt       8.42164927       4.86235529      26.91572703        1       0.00000000       0.00000337      -0.00049336      -0.01402316
O        4.21080764       2.43111030      30.21785476        0       0.50000000      -0.00001756       0.00000661      -0.04232168
H        4.21082248       2.43111985      29.22501571        0       0.50000000       0.00000971       0.00000454       0.04806865
