38
Lattice="8.421641763931781 0.0 0.0 4.2108208819658905 7.293355709136913 0.0 0.0 0.0 46.87624170604845" Properties=species:S:1:pos:R:3:tags:I:1:initial_magmoms:R:1:forces:R:3 charge=0 spin=0 energy=-194.41469332272374 free_energy=-194.41469332272374 stress="0.010195523500442505 3.356741729021451e-08 -1.992077613977017e-08 3.356741729021451e-08 0.01019546203315258 5.1666493305901895e-09 -1.992077613977017e-08 5.1666493305901895e-09 -0.0001539187942398712" pbc="T T T"
Pt      -0.00000001       0.00000015      19.95723445        4       0.00000000       0.00000308      -0.00000559       0.00971560
Pt       2.80721394      -0.00000009      19.95723448        4       0.00000000      -0.00135406      -0.00031519       0.01206186
Pt       5.61442781      -0.00000017      19.95723450        4       0.00000000       0.00042322       0.00035189       0.01177934
Pt       1.40360720       2.43111836      19.95723436        4       0.00000000       0.00009293      -0.00054857       0.01180593
Pt       4.21082078       2.43111836      19.95723446        4       0.00000000       0.00000290       0.00000300       0.01154064
Pt       7.01803484       2.43111844      19.95723431        4       0.00000000       0.00094636      -0.00102715       0.01208076
Pt       2.80721414       4.86223727      19.95723413        4       0.00000000       0.00040354       0.00134195       0.01206911
Pt       5.61442797       4.86223736      19.95723433        4       0.00000000      -0.00051709       0.00019771       0.01178040
Pt       8.42164142       4.86223724      19.95723439        4       0.00000000      -0.00000022      -0.00000011       0.01174346
Pt       1.40360727       0.81037261      22.29206790        3       0.00000000      -0.00140739      -0.00261623      -0.03534386
Pt       4.21082126       0.81037249      22.29206793        3       0.00000000      -0.00150150       0.00105166      -0.03793139
Pt       7.01803475       0.81037258      22.29206787        3       0.00000000       0.00297323       0.00009218      -0.03535688
Pt       2.80721449       3.24149123      22.29206778        3       0.00000000       0.00163134       0.00079195      -0.03805764
Pt       5.61442761       3.24149123      22.29206789        3       0.00000000      -0.00014431      -0.00179457      -0.03803880
Pt       8.42164155       3.24149130      22.29206812        3       0.00000000      -0.00088497       0.00345607      -0.03772048
Pt       4.21082090       5.67260997      22.29206743        3       0.00000000      -0.00156905       0.00252491      -0.03532936
Pt       7.01803489       5.67261038      22.29206778        3       0.00000000       0.00344711      -0.00097127      -0.03758133
Pt       9.82524818       5.67261058      22.29206804        3       0.00000000      -0.00254544      -0.00253754      -0.03761188
Pt      -0.00000057       1.62074568      24.58417368        2       0.00000000       0.00125383       0.01119821       0.02968407
Pt       2.80721445       1.62074549      24.58417387        2       0.00000000      -0.02648164      -0.01784601      -0.01250881
Pt       5.61442780       1.62074538      24.58417368        2       0.00000000       0.02858790      -0.01423112      -0.01252192
Pt       1.40360635       4.05186441      24.58417386        2       0.00000000       0.01041864      -0.00814862       0.03226589
Pt       4.21082088       4.05186391      24.58417389        2       0.00000000      -0.00207404       0.03185577      -0.01247524
Pt       7.01803505       4.05186405      24.58417404        2       0.00000000      -0.01239366      -0.00480926       0.03224276
Pt       2.80721273       6.48298348      24.58417381        2       0.00000000      -0.01025947      -0.00444947       0.02957025
Pt       5.61442805       6.48298330      24.58417394        2       0.00000000       0.00903347      -0.00662090       0.02954603
Pt       8.42164222       6.48298341      24.58417373        2       0.00000000       0.00191347       0.01305586       0.03208114
Pt      -0.00000076       0.00003194      26.90630418        1       0.00000000      -0.00002661       0.00025880       0.03121189
Pt       2.80587779      -0.00122078      26.91706158        1       0.00000000       0.00249111       0.00200173       0.00127186
Pt       5.61452152      -0.00272450      26.91756284        1       0.00000000      -0.00255369       0.00191306       0.00025568
Pt       1.40137276       2.43228859      26.91750866        1       0.00000000       0.00273864       0.00135401       0.00014597
Pt       4.21082080       2.43112161      26.90207017        1       0.00000000      -0.00000147      -0.00000505       0.03030577
Pt       7.01957208       2.43048907      26.91696636        1       0.00000000      -0.00276616       0.00128852       0.00115572
Pt       2.80701285       4.86408732      26.91704578        1       0.00000000       0.00028674      -0.00325157       0.00121675
Pt       5.61656779       4.86380005      26.91760370        1       0.00000000      -0.00020016      -0.00329586       0.00024701
Pt       8.42164142       4.86220718      26.90866446        1       0.00000000       0.00001990      -0.00025881       0.02218314
O        4.21082371       2.43111225      30.23259409        0       0.50000000       0.00002121      -0.00001806      -0.00568328
H        4.21081642       2.43112463      29.24132353        0       0.50000000      -0.00000772       0.00001367      -0.00179966
