38
Lattice="8.421641763931781 0.0 0.0 4.2108208819658905 7.293355709136913 0.0 0.0 0.0 46.87624170604845" Properties=species:S:1:pos:R:3:tags:I:1:initial_magmoms:R:1:forces:R:3 charge=0 spin=0 energy=-194.4149126678165 free_energy=-194.4149126678165 stress="0.010227177292108536 7.05781175724951e-08 -3.387108904462366e-08 7.05781175724951e-08 0.010227088816463947 -1.9760799219170622e-08 -3.387108904462366e-08 -1.9760799219170622e-08 -0.00011146550241392106" pbc="T T T"
Pt      -0.00000001       0.00000015      19.95723445        4       0.00000000       0.00000890      -0.00000657       0.00977334
Pt       2.80721394      -0.00000009      19.95723448        4       0.00000000      -0.00137830      -0.00031795       0.01202335
Pt       5.61442781      -0.00000017      19.95723450        4       0.00000000       0.00043734       0.00037051       0.01174664
Pt       1.40360720       2.43111836      19.95723436        4       0.00000000       0.00010371      -0.00057966       0.01177236
Pt       4.21082078       2.43111836      19.95723446        4       0.00000000      -0.00000177       0.00000126       0.01173044
Pt       7.01803484       2.43111844      19.95723431        4       0.00000000       0.00096121      -0.00104678       0.01204607
Pt       2.80721414       4.86223727      19.95723413        4       0.00000000       0.00041119       0.00136241       0.01202950
Pt       5.61442797       4.86223736      19.95723433        4       0.00000000      -0.00054388       0.00020757       0.01174649
Pt       8.42164142       4.86223724      19.95723439        4       0.00000000      -0.00000131       0.00000372       0.01195987
Pt       1.40360727       0.81037261      22.29206790        3       0.00000000      -0.00146517      -0.00270040      -0.03534587
Pt       4.21082126       0.81037249      22.29206793        3       0.00000000      -0.00155972       0.00102552      -0.03789485
Pt       7.01803475       0.81037258      22.29206787        3       0.00000000       0.00308043       0.00008802      -0.03543771
Pt       2.80721449       3.24149123      22.29206778        3       0.00000000       0.00162366       0.00087095      -0.03804680
Pt       5.61442761       3.24149123      22.29206789        3       0.00000000      -0.00008776      -0.00182976      -0.03802709
Pt       8.42164155       3.24149130      22.29206812        3       0.00000000      -0.00095015       0.00355117      -0.03788813
Pt       4.21082090       5.67260997      22.29206743        3       0.00000000      -0.00163558       0.00261323      -0.03537584
Pt       7.01803489       5.67261038      22.29206778        3       0.00000000       0.00356430      -0.00097394      -0.03771431
Pt       9.82524818       5.67261058      22.29206804        3       0.00000000      -0.00259779      -0.00263323      -0.03777592
Pt      -0.00000057       1.62074568      24.58417368        2       0.00000000       0.00102821       0.00571533       0.03952056
Pt       2.80721445       1.62074549      24.58417387        2       0.00000000      -0.02149425      -0.01515300      -0.00398428
Pt       5.61442780       1.62074538      24.58417368        2       0.00000000       0.02386081      -0.01135685      -0.00396967
Pt       1.40360635       4.05186441      24.58417386        2       0.00000000       0.00647970      -0.00571329       0.04052956
Pt       4.21082088       4.05186391      24.58417389        2       0.00000000      -0.00215152       0.02623442      -0.00391424
Pt       7.01803505       4.05186405      24.58417404        2       0.00000000      -0.00832373      -0.00264438       0.04077124
Pt       2.80721273       6.48298348      24.58417381        2       0.00000000      -0.00537971      -0.00180302       0.03920111
Pt       5.61442805       6.48298330      24.58417394        2       0.00000000       0.00438262      -0.00370325       0.03922857
Pt       8.42164222       6.48298341      24.58417373        2       0.00000000       0.00174408       0.00841600       0.04028656
Pt       0.00002509       0.00001790      26.91183282        1       0.00000000      -0.00004507       0.00049764       0.00178687
Pt       2.80602432      -0.00104499      26.91724874        1       0.00000000       0.00120821       0.00051934       0.00085852
Pt       5.61447867      -0.00272119      26.91752639        1       0.00000000      -0.00151019       0.00133258       0.00091912
Pt       1.40151085       2.43227993      26.91745877        1       0.00000000       0.00101879       0.00112086       0.00078265
Pt       4.21080732       2.43110940      26.90733709        1       0.00000000       0.00035946       0.00008996      -0.00257997
Pt       7.01934287       2.43048254      26.91716830        1       0.00000000      -0.00074735       0.00116898       0.00051953
Pt       2.80712565       4.86392056      26.91722039        1       0.00000000      -0.00038400      -0.00171164       0.00083384
Pt       5.61650724       4.86380227      26.91758716        1       0.00000000       0.00049147      -0.00243396       0.00076389
Pt       8.42169162       4.86222953      26.91352535        1       0.00000000      -0.00024878      -0.00059890      -0.00337296
O        4.21135125       2.43112018      30.22605519        0       0.50000000       0.00089950       0.00001908       0.03835460
H        4.21004878       2.43111473      29.23548864        0       0.50000000      -0.00115760      -0.00000187      -0.03785681
