38
Lattice="8.421641763931781 0.0 0.0 4.2108208819658905 7.293355709136913 0.0 0.0 0.0 46.87624170604845" Properties=species:S:1:pos:R:3:tags:I:1:initial_magmoms:R:1:forces:R:3 charge=0 spin=0 energy=-194.4149069457706 free_energy=-194.4149069457706 stress="0.010227163322269917 1.0143185846800407e-07 -8.2078255303486e-09 1.0143185846800407e-07 0.010227094404399395 -2.0054100047239842e-10 -8.2078255303486e-09 -2.0054100047239842e-10 -0.0001115192353609018" pbc="T T T"
Pt      -0.00000001       0.00000015      19.95723445        4       0.00000000       0.00000860      -0.00000584       0.00977319
Pt       2.80721394      -0.00000009      19.95723448        4       0.00000000      -0.00137791      -0.00031741       0.01202369
Pt       5.61442781      -0.00000017      19.95723450        4       0.00000000       0.00043731       0.00037040       0.01174677
Pt       1.40360720       2.43111836      19.95723436        4       0.00000000       0.00010368      -0.00057934       0.01177268
Pt       4.21082078       2.43111836      19.95723446        4       0.00000000      -0.00000176       0.00000128       0.01173040
Pt       7.01803484       2.43111844      19.95723431        4       0.00000000       0.00096106      -0.00104732       0.01204611
Pt       2.80721414       4.86223727      19.95723413        4       0.00000000       0.00041040       0.00136250       0.01202974
Pt       5.61442797       4.86223736      19.95723433        4       0.00000000      -0.00054379       0.00020757       0.01174672
Pt       8.42164142       4.86223724      19.95723439        4       0.00000000      -0.00000092       0.00000413       0.01195976
Pt       1.40360727       0.81037261      22.29206790        3       0.00000000      -0.00146659      -0.00270078      -0.03534873
Pt       4.21082126       0.81037249      22.29206793        3       0.00000000      -0.00155979       0.00102522      -0.03789375
Pt       7.01803475       0.81037258      22.29206787        3       0.00000000       0.00308020       0.00008812      -0.03543518
Pt       2.80721449       3.24149123      22.29206778        3       0.00000000       0.00162283       0.00087168      -0.03804667
Pt       5.61442761       3.24149123      22.29206789        3       0.00000000      -0.00008737      -0.00182924      -0.03802641
Pt       8.42164155       3.24149130      22.29206812        3       0.00000000      -0.00095047       0.00355150      -0.03788888
Pt       4.21082090       5.67260997      22.29206743        3       0.00000000      -0.00163561       0.00261335      -0.03537769
Pt       7.01803489       5.67261038      22.29206778        3       0.00000000       0.00356244      -0.00097394      -0.03771390
Pt       9.82524818       5.67261058      22.29206804        3       0.00000000      -0.00259794      -0.00263412      -0.03777310
Pt      -0.00000057       1.62074568      24.58417368        2       0.00000000       0.00103585       0.00571856       0.03953824
Pt       2.80721445       1.62074549      24.58417387        2       0.00000000      -0.02149888      -0.01514859      -0.00396360
Pt       5.61442780       1.62074538      24.58417368        2       0.00000000       0.02385920      -0.01135415      -0.00398762
Pt       1.40360635       4.05186441      24.58417386        2       0.00000000       0.00648602      -0.00572275       0.04052956
Pt       4.21082088       4.05186391      24.58417389        2       0.00000000      -0.00215299       0.02623230      -0.00389940
Pt       7.01803505       4.05186405      24.58417404        2       0.00000000      -0.00832766      -0.00264851       0.04076235
Pt       2.80721273       6.48298348      24.58417381        2       0.00000000      -0.00537887      -0.00180598       0.03917694
Pt       5.61442805       6.48298330      24.58417394        2       0.00000000       0.00438731      -0.00370482       0.03923449
Pt       8.42164222       6.48298341      24.58417373        2       0.00000000       0.00174345       0.00841912       0.04025370
Pt       0.00002075       0.00001183      26.91182946        1       0.00000000       0.00003284       0.00054056       0.00180680
Pt       2.80603400      -0.00104989      26.91724973        1       0.00000000       0.00114266       0.00056372       0.00085632
Pt       5.61447842      -0.00272301      26.91752321        1       0.00000000      -0.00149986       0.00134551       0.00095227
Pt       1.40151116       2.43228302      26.91746372        1       0.00000000       0.00103178       0.00109024       0.00075021
Pt       4.21081482       2.43110634      26.90734020        1       0.00000000       0.00029779       0.00011553      -0.00261663
Pt       7.01933792       2.43048024      26.91716738        1       0.00000000      -0.00070119       0.00117366       0.00052214
Pt       2.80712412       4.86392673      26.91722147        1       0.00000000      -0.00035842      -0.00177122       0.00083630
Pt       5.61651084       4.86379988      26.91758846        1       0.00000000       0.00046791      -0.00242491       0.00075757
Pt       8.42169212       4.86223136      26.91351828        1       0.00000000      -0.00025335      -0.00062114      -0.00333843
O        4.21133670       2.43113276      30.22602356        0       0.50000000       0.00086286       0.00000851       0.03845893
H        4.21005399       2.43111098      29.23545923        0       0.50000000      -0.00114078      -0.00001331      -0.03795477
