38
Lattice="8.421641763931781 0.0 0.0 4.2108208819658905 7.293355709136913 0.0 0.0 0.0 46.87624170604845" Properties=species:S:1:pos:R:3:tags:I:1:initial_magmoms:R:1:forces:R:3 charge=0 spin=0 energy=-194.41481539303624 free_energy=-194.41481539303624 stress="0.010233845561742783 2.3438701646227855e-08 1.609426725224239e-08 2.3438701646227855e-08 0.010233861394226551 5.823559945383749e-07 1.609426725224239e-08 5.823559945383749e-07 -6.957708683330566e-05" pbc="T T T"
Pt      -0.00000001       0.00000015      19.95723445        4       0.00000000       0.00000294       0.00000606       0.00966581
Pt       2.80721394      -0.00000009      19.95723448        4       0.00000000      -0.00137669      -0.00031060       0.01199119
Pt       5.61442781      -0.00000017      19.95723450        4       0.00000000       0.00052941       0.00033599       0.01173230
Pt       1.40360720       2.43111836      19.95723436        4       0.00000000       0.00002043      -0.00061572       0.01175788
Pt       4.21082078       2.43111836      19.95723446        4       0.00000000       0.00000189      -0.00000430       0.01178746
Pt       7.01803484       2.43111844      19.95723431        4       0.00000000       0.00095111      -0.00103077       0.01200599
Pt       2.80721414       4.86223727      19.95723413        4       0.00000000       0.00042442       0.00133939       0.01200584
Pt       5.61442797       4.86223736      19.95723433        4       0.00000000      -0.00055410       0.00028269       0.01172953
Pt       8.42164142       4.86223724      19.95723439        4       0.00000000       0.00000006      -0.00000376       0.01205790
Pt       1.40360727       0.81037261      22.29206790        3       0.00000000      -0.00148692      -0.00276198      -0.03525279
Pt       4.21082126       0.81037249      22.29206793        3       0.00000000      -0.00143596       0.00097980      -0.03809468
Pt       7.01803475       0.81037258      22.29206787        3       0.00000000       0.00313787       0.00009408      -0.03524704
Pt       2.80721449       3.24149123      22.29206778        3       0.00000000       0.00159194       0.00072897      -0.03810267
Pt       5.61442761       3.24149123      22.29206789        3       0.00000000      -0.00016894      -0.00174047      -0.03808908
Pt       8.42164155       3.24149130      22.29206812        3       0.00000000      -0.00114074       0.00365268      -0.03777717
Pt       4.21082090       5.67260997      22.29206743        3       0.00000000      -0.00165466       0.00268979      -0.03521959
Pt       7.01803489       5.67261038      22.29206778        3       0.00000000       0.00370463      -0.00081366      -0.03776499
Pt       9.82524818       5.67261058      22.29206804        3       0.00000000      -0.00255678      -0.00282261      -0.03778481
Pt      -0.00000057       1.62074568      24.58417368        2       0.00000000       0.00134876       0.00282599       0.04346171
Pt       2.80721445       1.62074549      24.58417387        2       0.00000000      -0.02140346      -0.01342992      -0.00281560
Pt       5.61442780       1.62074538      24.58417368        2       0.00000000       0.02253189      -0.01150477      -0.00280480
Pt       1.40360635       4.05186441      24.58417386        2       0.00000000       0.00465446      -0.00414977       0.04306445
Pt       4.21082088       4.05186391      24.58417389        2       0.00000000      -0.00107594       0.02518226      -0.00295677
Pt       7.01803505       4.05186405      24.58417404        2       0.00000000      -0.00579348      -0.00221728       0.04306367
Pt       2.80721273       6.48298348      24.58417381        2       0.00000000      -0.00304274      -0.00023172       0.04317195
Pt       5.61442805       6.48298330      24.58417394        2       0.00000000       0.00169093      -0.00263403       0.04317931
Pt       8.42164222       6.48298341      24.58417373        2       0.00000000       0.00110437       0.00618445       0.04299162
Pt      -0.00000267      -0.00010238      26.91445747        1       0.00000000       0.00000883       0.00044991      -0.01246023
Pt       2.80539618       0.00020281      26.91686899        1       0.00000000       0.00237591      -0.00487741       0.00272319
Pt       5.61380497      -0.00366743      26.91740197        1       0.00000000       0.00211164       0.00403518       0.00150875
Pt       1.40061393       2.43355747      26.91752703        1       0.00000000       0.00367204      -0.00457291       0.00083808
Pt       4.21082289       2.43111201      26.90855528        1       0.00000000      -0.00004218       0.00002182      -0.01246921
Pt       7.01884902       2.42954256      26.91698239        1       0.00000000       0.00198486       0.00375923       0.00192237
Pt       2.80819646       4.86362423      26.91683770        1       0.00000000      -0.00422169       0.00107069       0.00274490
Pt       5.61806506       4.86346480      26.91743444        1       0.00000000      -0.00590229       0.00059075       0.00157022
Pt       8.42164873       4.86235681      26.91570640        1       0.00000000       0.00002306      -0.00049530      -0.01394112
O        4.21081123       2.43110331      30.21780349        0       0.50000000      -0.00002457      -0.00003082      -0.04221261
H        4.21082417       2.43112717      29.22496459        0       0.50000000       0.00000958       0.00001824       0.04801904
