38
Lattice="8.421641763931781 0.0 0.0 4.2108208819658905 7.293355709136913 0.0 0.0 0.0 46.87624170604845" Properties=species:S:1:pos:R:3:tags:I:1:initial_magmoms:R:1:forces:R:3 charge=0 spin=0 energy=-194.4149183898624 free_energy=-194.4149183898624 stress="0.01022713165730238 9.156389779718666e-08 -3.6097034694648755e-08 9.156389779718666e-08 0.010227065533399582 2.3752383171427027e-08 -3.6097034694648755e-08 2.3752383171427027e-08 -0.000111543238745071" pbc="T T T"
Pt      -0.00000001       0.00000015      19.95723445        4       0.00000000       0.00000853      -0.00000614       0.00977328
Pt       2.80721394      -0.00000009      19.95723448        4       0.00000000      -0.00137808      -0.00031770       0.01202340
Pt       5.61442781      -0.00000017      19.95723450        4       0.00000000       0.00043745       0.00037007       0.01174649
Pt       1.40360720       2.43111836      19.95723436        4       0.00000000       0.00010358      -0.00057929       0.01177283
Pt       4.21082078       2.43111836      19.95723446        4       0.00000000      -0.00000177       0.00000111       0.01173046
Pt       7.01803484       2.43111844      19.95723431        4       0.00000000       0.00096114      -0.00104711       0.01204602
Pt       2.80721414       4.86223727      19.95723413        4       0.00000000       0.00041064       0.00136264       0.01202950
Pt       5.61442797       4.86223736      19.95723433        4       0.00000000      -0.00054362       0.00020769       0.01174632
Pt       8.42164142       4.86223724      19.95723439        4       0.00000000      -0.00000080       0.00000394       0.01195970
Pt       1.40360727       0.81037261      22.29206790        3       0.00000000      -0.00146567      -0.00270053      -0.03534610
Pt       4.21082126       0.81037249      22.29206793        3       0.00000000      -0.00156012       0.00102581      -0.03789324
Pt       7.01803475       0.81037258      22.29206787        3       0.00000000       0.00308052       0.00008838      -0.03543648
Pt       2.80721449       3.24149123      22.29206778        3       0.00000000       0.00162376       0.00087061      -0.03804801
Pt       5.61442761       3.24149123      22.29206789        3       0.00000000      -0.00008827      -0.00182974      -0.03802804
Pt       8.42164155       3.24149130      22.29206812        3       0.00000000      -0.00095036       0.00355079      -0.03788865
Pt       4.21082090       5.67260997      22.29206743        3       0.00000000      -0.00163543       0.00261267      -0.03537733
Pt       7.01803489       5.67261038      22.29206778        3       0.00000000       0.00356409      -0.00097466      -0.03771570
Pt       9.82524818       5.67261058      22.29206804        3       0.00000000      -0.00259744      -0.00263385      -0.03777344
Pt      -0.00000057       1.62074568      24.58417368        2       0.00000000       0.00103718       0.00572227       0.03953881
Pt       2.80721445       1.62074549      24.58417387        2       0.00000000      -0.02150469      -0.01514971      -0.00396320
Pt       5.61442780       1.62074538      24.58417368        2       0.00000000       0.02386536      -0.01135881      -0.00399298
Pt       1.40360635       4.05186441      24.58417386        2       0.00000000       0.00648459      -0.00572346       0.04053551
Pt       4.21082088       4.05186391      24.58417389        2       0.00000000      -0.00215410       0.02623541      -0.00390328
Pt       7.01803505       4.05186405      24.58417404        2       0.00000000      -0.00832553      -0.00264837       0.04076231
Pt       2.80721273       6.48298348      24.58417381        2       0.00000000      -0.00538173      -0.00180631       0.03917522
Pt       5.61442805       6.48298330      24.58417394        2       0.00000000       0.00438304      -0.00370005       0.03923680
Pt       8.42164222       6.48298341      24.58417373        2       0.00000000       0.00174293       0.00842217       0.04024852
Pt       0.00001567       0.00001385      26.91182869        1       0.00000000       0.00004308       0.00054183       0.00179531
Pt       2.80603182      -0.00104980      26.91725019        1       0.00000000       0.00113403       0.00057099       0.00085638
Pt       5.61447660      -0.00272251      26.91752426        1       0.00000000      -0.00149659       0.00134669       0.00094493
Pt       1.40151055       2.43228368      26.91746428        1       0.00000000       0.00102249       0.00109433       0.00073802
Pt       4.21081481       2.43110558      26.90733504        1       0.00000000       0.00029386       0.00012210      -0.00257661
Pt       7.01933764       2.43048235      26.91716748        1       0.00000000      -0.00069511       0.00117514       0.00052052
Pt       2.80712366       4.86392610      26.91722052        1       0.00000000      -0.00036543      -0.00176651       0.00083407
Pt       5.61651030       4.86380077      26.91758855        1       0.00000000       0.00046098      -0.00241909       0.00075413
Pt       8.42169090       4.86223693      26.91351835        1       0.00000000      -0.00025284      -0.00064347      -0.00334407
O        4.21135675       2.43111938      30.22604766        0       0.50000000       0.00090661      -0.00002151       0.03845027
H        4.21004510       2.43111426      29.23548293        0       0.50000000      -0.00116643       0.00000167      -0.03793128
