38
Lattice="8.421641763931781 0.0 0.0 4.2108208819658905 7.293355709136913 0.0 0.0 0.0 46.87624170604845" Properties=species:S:1:pos:R:3:tags:I:1:initial_magmoms:R:1:forces:R:3 charge=0 spin=0 energy=-194.41481157833897 free_energy=-194.41481157833897 stress="0.010233867913484573 3.902422562873653e-08 -1.0295597707710158e-09 3.902422562873653e-08 0.01023389957845211 5.871575581295474e-07 -1.0295597707710158e-09 5.871575581295474e-07 -6.949325324967504e-05" pbc="T T T"
Pt      -0.00000001       0.00000015      19.95723445        4       0.00000000       0.00000261       0.00000640       0.00966723
Pt       2.80721394      -0.00000009      19.95723448        4       0.00000000      -0.00137618      -0.00031094       0.01199129
Pt       5.61442781      -0.00000017      19.95723450        4       0.00000000       0.00052917       0.00033581       0.01173226
Pt       1.40360720       2.43111836      19.95723436        4       0.00000000       0.00002006      -0.00061545       0.01175745
Pt       4.21082078       2.43111836      19.95723446        4       0.00000000       0.00000167      -0.00000427       0.01178703
Pt       7.01803484       2.43111844      19.95723431        4       0.00000000       0.00095139      -0.00102999       0.01200597
Pt       2.80721414       4.86223727      19.95723413        4       0.00000000       0.00042373       0.00133933       0.01200571
Pt       5.61442797       4.86223736      19.95723433        4       0.00000000      -0.00055318       0.00028271       0.01172959
Pt       8.42164142       4.86223724      19.95723439        4       0.00000000       0.00000006      -0.00000412       0.01205809
Pt       1.40360727       0.81037261      22.29206790        3       0.00000000      -0.00148535      -0.00276015      -0.03525073
Pt       4.21082126       0.81037249      22.29206793        3       0.00000000      -0.00143588       0.00098101      -0.03810063
Pt       7.01803475       0.81037258      22.29206787        3       0.00000000       0.00313530       0.00009482      -0.03524685
Pt       2.80721449       3.24149123      22.29206778        3       0.00000000       0.00159302       0.00072808      -0.03810801
Pt       5.61442761       3.24149123      22.29206789        3       0.00000000      -0.00017047      -0.00174071      -0.03809428
Pt       8.42164155       3.24149130      22.29206812        3       0.00000000      -0.00114041       0.00365306      -0.03777331
Pt       4.21082090       5.67260997      22.29206743        3       0.00000000      -0.00165444       0.00268706      -0.03521874
Pt       7.01803489       5.67261038      22.29206778        3       0.00000000       0.00370469      -0.00081291      -0.03776023
Pt       9.82524818       5.67261058      22.29206804        3       0.00000000      -0.00255694      -0.00282313      -0.03778247
Pt      -0.00000057       1.62074568      24.58417368        2       0.00000000       0.00135018       0.00283067       0.04346722
Pt       2.80721445       1.62074549      24.58417387        2       0.00000000      -0.02143206      -0.01344782      -0.00284782
Pt       5.61442780       1.62074538      24.58417368        2       0.00000000       0.02256309      -0.01151753      -0.00284501
Pt       1.40360635       4.05186441      24.58417386        2       0.00000000       0.00463375      -0.00413860       0.04309839
Pt       4.21082088       4.05186391      24.58417389        2       0.00000000      -0.00107710       0.02521641      -0.00299147
Pt       7.01803505       4.05186405      24.58417404        2       0.00000000      -0.00577030      -0.00220559       0.04309376
Pt       2.80721273       6.48298348      24.58417381        2       0.00000000      -0.00304422      -0.00023662       0.04317230
Pt       5.61442805       6.48298330      24.58417394        2       0.00000000       0.00169320      -0.00263465       0.04318002
Pt       8.42164222       6.48298341      24.58417373        2       0.00000000       0.00109955       0.00615589       0.04301734
Pt      -0.00000401      -0.00010280      26.91445528        1       0.00000000       0.00001860       0.00045089      -0.01243852
Pt       2.80539558       0.00020180      26.91686974        1       0.00000000       0.00237917      -0.00489026       0.00271367
Pt       5.61380150      -0.00366765      26.91740059        1       0.00000000       0.00212826       0.00401063       0.00151715
Pt       1.40061725       2.43355653      26.91752789        1       0.00000000       0.00364225      -0.00456046       0.00082877
Pt       4.21082454       2.43111177      26.90852887        1       0.00000000      -0.00004831       0.00002258      -0.01229522
Pt       7.01884947       2.42954193      26.91698412        1       0.00000000       0.00200145       0.00376675       0.00191210
Pt       2.80819738       4.86362350      26.91683873        1       0.00000000      -0.00424179       0.00107858       0.00273608
Pt       5.61806583       4.86346426      26.91743389        1       0.00000000      -0.00588995       0.00059851       0.00156986
Pt       8.42165024       4.86235455      26.91572730        1       0.00000000       0.00000635      -0.00048879      -0.01402903
O        4.21080773       2.43111531      30.21786810        0       0.50000000      -0.00001029      -0.00002192      -0.04233203
H        4.21082308       2.43112180      29.22502852        0       0.50000000       0.00000925       0.00000468       0.04807298
