38
Lattice="8.421641763931781 0.0 0.0 4.2108208819658905 7.293355709136913 0.0 0.0 0.0 46.87624170604845" Properties=species:S:1:pos:R:3:tags:I:1:initial_magmoms:R:1:forces:R:3 charge=0 spin=0 energy=-194.4149012237247 free_energy=-194.4149012237247 stress="0.01022716611623764 6.604660285347563e-08 -2.685356470522038e-08 6.604660285347563e-08 0.010227120481431484 -1.213462130777998e-08 -2.685356470522038e-08 -1.213462130777998e-08 -0.00011144393647555262" pbc="T T T"
Pt      -0.00000001       0.00000015      19.95723445        4       0.00000000       0.00000901      -0.00000628       0.00977313
Pt       2.80721394      -0.00000009      19.95723448        4       0.00000000      -0.00137838      -0.00031763       0.01202319
Pt       5.61442781      -0.00000017      19.95723450        4       0.00000000       0.00043723       0.00037057       0.01174679
Pt       1.40360720       2.43111836      19.95723436        4       0.00000000       0.00010331      -0.00057955       0.01177238
Pt       4.21082078       2.43111836      19.95723446        4       0.00000000      -0.00000181       0.00000150       0.01173042
Pt       7.01803484       2.43111844      19.95723431        4       0.00000000       0.00096135      -0.00104658       0.01204577
Pt       2.80721414       4.86223727      19.95723413        4       0.00000000       0.00041090       0.00136245       0.01202963
Pt       5.61442797       4.86223736      19.95723433        4       0.00000000      -0.00054385       0.00020767       0.01174634
Pt       8.42164142       4.86223724      19.95723439        4       0.00000000      -0.00000140       0.00000328       0.01196025
Pt       1.40360727       0.81037261      22.29206790        3       0.00000000      -0.00146602      -0.00270046      -0.03534681
Pt       4.21082126       0.81037249      22.29206793        3       0.00000000      -0.00156019       0.00102536      -0.03789456
Pt       7.01803475       0.81037258      22.29206787        3       0.00000000       0.00308012       0.00008805      -0.03543691
Pt       2.80721449       3.24149123      22.29206778        3       0.00000000       0.00162311       0.00087110      -0.03804617
Pt       5.61442761       3.24149123      22.29206789        3       0.00000000      -0.00008816      -0.00182976      -0.03802680
Pt       8.42164155       3.24149130      22.29206812        3       0.00000000      -0.00095117       0.00355127      -0.03788787
Pt       4.21082090       5.67260997      22.29206743        3       0.00000000      -0.00163558       0.00261373      -0.03537636
Pt       7.01803489       5.67261038      22.29206778        3       0.00000000       0.00356292      -0.00097403      -0.03771449
Pt       9.82524818       5.67261058      22.29206804        3       0.00000000      -0.00259823      -0.00263295      -0.03777453
Pt      -0.00000057       1.62074568      24.58417368        2       0.00000000       0.00102987       0.00571780       0.03952523
Pt       2.80721445       1.62074549      24.58417387        2       0.00000000      -0.02149494      -0.01515308      -0.00399257
Pt       5.61442780       1.62074538      24.58417368        2       0.00000000       0.02385976      -0.01135805      -0.00397008
Pt       1.40360635       4.05186441      24.58417386        2       0.00000000       0.00648008      -0.00571318       0.04053101
Pt       4.21082088       4.05186391      24.58417389        2       0.00000000      -0.00214891       0.02623649      -0.00391654
Pt       7.01803505       4.05186405      24.58417404        2       0.00000000      -0.00832126      -0.00264468       0.04077153
Pt       2.80721273       6.48298348      24.58417381        2       0.00000000      -0.00537897      -0.00180438       0.03920458
Pt       5.61442805       6.48298330      24.58417394        2       0.00000000       0.00438202      -0.00370554       0.03922866
Pt       8.42164222       6.48298341      24.58417373        2       0.00000000       0.00174888       0.00841283       0.04028306
Pt       0.00002714       0.00001873      26.91183323        1       0.00000000      -0.00004788       0.00048363       0.00178405
Pt       2.80602788      -0.00104636      26.91724797        1       0.00000000       0.00119644       0.00052217       0.00086728
Pt       5.61447902      -0.00272160      26.91752612        1       0.00000000      -0.00150329       0.00132968       0.00091902
Pt       1.40151317       2.43227981      26.91745921        1       0.00000000       0.00100418       0.00111652       0.00078244
Pt       4.21080757       2.43110904      26.90733705        1       0.00000000       0.00036179       0.00008888      -0.00257882
Pt       7.01934155       2.43048142      26.91716770        1       0.00000000      -0.00073025       0.00116912       0.00051966
Pt       2.80712715       4.86391933      26.91722048        1       0.00000000      -0.00038495      -0.00170245       0.00083513
Pt       5.61650933       4.86380095      26.91758695        1       0.00000000       0.00048610      -0.00242851       0.00076389
Pt       8.42169328       4.86222735      26.91352467        1       0.00000000      -0.00024316      -0.00058285      -0.00335902
O        4.21133046       2.43113240      30.22604686        0       0.50000000       0.00087438       0.00002160       0.03834171
H        4.21005704       2.43111076      29.23548125        0       0.50000000      -0.00113310      -0.00001381      -0.03786359
