38
Lattice="8.421641763931781 0.0 0.0 4.2108208819658905 7.293355709136913 0.0 0.0 0.0 46.87624170604845" Properties=species:S:1:pos:R:3:tags:I:1:initial_magmoms:R:1:forces:R:3 charge=0 spin=0 energy=-194.41437479550206 free_energy=-194.41437479550206 stress="0.010243457742035389 3.8824232717615814e-08 -8.939789353235028e-09 3.8824232717615814e-08 0.010243451222777367 -5.4076090272303645e-09 -8.939789353235028e-09 -5.4076090272303645e-09 -6.931470124982297e-05" pbc="T T T"
Pt      -0.00000001       0.00000015      19.95723445        4       0.00000000       0.00000293       0.00000036       0.00948575
Pt       2.80721394      -0.00000009      19.95723448        4       0.00000000      -0.00143141      -0.00042880       0.01196398
Pt       5.61442781      -0.00000017      19.95723450        4       0.00000000       0.00051585       0.00038834       0.01170183
Pt       1.40360720       2.43111836      19.95723436        4       0.00000000       0.00007485      -0.00063860       0.01172777
Pt       4.21082078       2.43111836      19.95723446        4       0.00000000       0.00000235       0.00000078       0.01165972
Pt       7.01803484       2.43111844      19.95723431        4       0.00000000       0.00108340      -0.00102958       0.01198158
Pt       2.80721414       4.86223727      19.95723413        4       0.00000000       0.00034464       0.00145747       0.01197668
Pt       5.61442797       4.86223736      19.95723433        4       0.00000000      -0.00059241       0.00025272       0.01170090
Pt       8.42164142       4.86223724      19.95723439        4       0.00000000       0.00000040      -0.00000311       0.01212514
Pt       1.40360727       0.81037261      22.29206790        3       0.00000000      -0.00119978      -0.00260813      -0.03410658
Pt       4.21082126       0.81037249      22.29206793        3       0.00000000      -0.00152590       0.00097880      -0.03877994
Pt       7.01803475       0.81037258      22.29206787        3       0.00000000       0.00286050       0.00026344      -0.03411327
Pt       2.80721449       3.24149123      22.29206778        3       0.00000000       0.00160740       0.00083322      -0.03884760
Pt       5.61442761       3.24149123      22.29206789        3       0.00000000      -0.00009473      -0.00179418      -0.03883182
Pt       8.42164155       3.24149130      22.29206812        3       0.00000000      -0.00114926       0.00398638      -0.03782716
Pt       4.21082090       5.67260997      22.29206743        3       0.00000000      -0.00165980       0.00234934      -0.03409151
Pt       7.01803489       5.67261038      22.29206778        3       0.00000000       0.00401973      -0.00099448      -0.03775145
Pt       9.82524818       5.67261058      22.29206804        3       0.00000000      -0.00285762      -0.00301812      -0.03777630
Pt      -0.00000057       1.62074568      24.58417368        2       0.00000000       0.00117344      -0.00064719       0.05385116
Pt       2.80721445       1.62074549      24.58417387        2       0.00000000      -0.02729173      -0.01796551      -0.01067248
Pt       5.61442780       1.62074538      24.58417368        2       0.00000000       0.02920065      -0.01466474      -0.01070382
Pt       1.40360635       4.05186441      24.58417386        2       0.00000000       0.00139669      -0.00313339       0.05155861
Pt       4.21082088       4.05186391      24.58417389        2       0.00000000      -0.00188617       0.03258327      -0.01071149
Pt       7.01803505       4.05186405      24.58417404        2       0.00000000      -0.00343620       0.00034864       0.05152660
Pt       2.80721273       6.48298348      24.58417381        2       0.00000000       0.00002772       0.00137048       0.05377760
Pt       5.61442805       6.48298330      24.58417394        2       0.00000000      -0.00117314      -0.00067260       0.05378489
Pt       8.42164222       6.48298341      24.58417373        2       0.00000000       0.00198659       0.00278616       0.05151622
Pt      -0.00000490      -0.00000411      26.91887729        1       0.00000000       0.00001855       0.00015078      -0.03530531
Pt       2.80647422       0.00005374      26.91776952        1       0.00000000      -0.00507945      -0.01181730      -0.00111717
Pt       5.61427911      -0.00224233      26.91811673        1       0.00000000       0.00374092      -0.00889052      -0.00139906
Pt       1.40176154       2.43233543      26.91812519        1       0.00000000      -0.00896394       0.00087665      -0.00165231
Pt       4.21081930       2.43111273      26.90408749        1       0.00000000      -0.00003091       0.00004435       0.00077572
Pt       7.01829640       2.43044191      26.91773733        1       0.00000000       0.01230291       0.00126787      -0.00135892
Pt       2.80768652       4.86286775      26.91772965        1       0.00000000      -0.00718690       0.01052751      -0.00106054
Pt       5.61642504       4.86326493      26.91814145        1       0.00000000       0.00518425       0.00802199      -0.00133729
Pt       8.42164576       4.86224995      26.91920271        1       0.00000000       0.00000853      -0.00018554      -0.03343415
O        4.21082164       2.43112108      30.19494474        0       0.50000000       0.00000966       0.00000448       0.00696351
H        4.21081988       2.43111824      29.20278333        0       0.50000000      -0.00000256      -0.00000116       0.01280073
