38
Lattice="8.421641763931781 0.0 0.0 4.2108208819658905 7.293355709136913 0.0 0.0 0.0 46.87624170604845" Properties=species:S:1:pos:R:3:tags:I:1:initial_magmoms:R:1:forces:R:3 charge=0 spin=0 energy=-194.41468378598057 free_energy=-194.41468378598057 stress="0.010195527225732803 5.613226505829516e-08 -5.223915522378775e-09 5.613226505829516e-08 0.010195461101830006 -7.99190846834108e-09 -5.223915522378775e-09 -7.99190846834108e-09 -0.00015394961519632488" pbc="T T T"
Pt      -0.00000001       0.00000015      19.95723445        4       0.00000000       0.00000337      -0.00000577       0.00971552
Pt       2.80721394      -0.00000009      19.95723448        4       0.00000000      -0.00135407      -0.00031534       0.01206169
Pt       5.61442781      -0.00000017      19.95723450        4       0.00000000       0.00042283       0.00035186       0.01177944
Pt       1.40360720       2.43111836      19.95723436        4       0.00000000       0.00009300      -0.00054841       0.01180629
Pt       4.21082078       2.43111836      19.95723446        4       0.00000000       0.00000286       0.00000287       0.01154009
Pt       7.01803484       2.43111844      19.95723431        4       0.00000000       0.00094653      -0.00102710       0.01208078
Pt       2.80721414       4.86223727      19.95723413        4       0.00000000       0.00040360       0.00134182       0.01206905
Pt       5.61442797       4.86223736      19.95723433        4       0.00000000      -0.00051745       0.00019780       0.01178052
Pt       8.42164142       4.86223724      19.95723439        4       0.00000000       0.00000002      -0.00000009       0.01174344
Pt       1.40360727       0.81037261      22.29206790        3       0.00000000      -0.00140739      -0.00261676      -0.03534396
Pt       4.21082126       0.81037249      22.29206793        3       0.00000000      -0.00150043       0.00105164      -0.03792932
Pt       7.01803475       0.81037258      22.29206787        3       0.00000000       0.00297271       0.00009250      -0.03535692
Pt       2.80721449       3.24149123      22.29206778        3       0.00000000       0.00163132       0.00079118      -0.03805728
Pt       5.61442761       3.24149123      22.29206789        3       0.00000000      -0.00014388      -0.00179514      -0.03803801
Pt       8.42164155       3.24149130      22.29206812        3       0.00000000      -0.00088526       0.00345614      -0.03772086
Pt       4.21082090       5.67260997      22.29206743        3       0.00000000      -0.00156887       0.00252561      -0.03532890
Pt       7.01803489       5.67261038      22.29206778        3       0.00000000       0.00344694      -0.00097081      -0.03758032
Pt       9.82524818       5.67261058      22.29206804        3       0.00000000      -0.00254540      -0.00253724      -0.03761155
Pt      -0.00000057       1.62074568      24.58417368        2       0.00000000       0.00125468       0.01120018       0.02968773
Pt       2.80721445       1.62074549      24.58417387        2       0.00000000      -0.02648305      -0.01784585      -0.01251641
Pt       5.61442780       1.62074538      24.58417368        2       0.00000000       0.02858836      -0.01423199      -0.01252785
Pt       1.40360635       4.05186441      24.58417386        2       0.00000000       0.01041833      -0.00814928       0.03226588
Pt       4.21082088       4.05186391      24.58417389        2       0.00000000      -0.00207353       0.03185736      -0.01248143
Pt       7.01803505       4.05186405      24.58417404        2       0.00000000      -0.01239538      -0.00480968       0.03224070
Pt       2.80721273       6.48298348      24.58417381        2       0.00000000      -0.01026254      -0.00445042       0.02957136
Pt       5.61442805       6.48298330      24.58417394        2       0.00000000       0.00903647      -0.00662374       0.02954499
Pt       8.42164222       6.48298341      24.58417373        2       0.00000000       0.00191402       0.01305917       0.03208072
Pt       0.00000020       0.00003131      26.90630139        1       0.00000000      -0.00001190       0.00025482       0.03123064
Pt       2.80587840      -0.00121873      26.91706179        1       0.00000000       0.00249143       0.00198793       0.00127184
Pt       5.61452189      -0.00272278      26.91756273        1       0.00000000      -0.00255404       0.00190077       0.00025587
Pt       1.40137410       2.43228865      26.91750877        1       0.00000000       0.00272424       0.00135883       0.00014538
Pt       4.21082086       2.43112141      26.90207117        1       0.00000000      -0.00000071      -0.00000491       0.03030071
Pt       7.01957079       2.43048870      26.91696597        1       0.00000000      -0.00275155       0.00128929       0.00115699
Pt       2.80701383       4.86408594      26.91704590        1       0.00000000       0.00027751      -0.00324315       0.00121762
Pt       5.61656653       4.86379867      26.91760399        1       0.00000000      -0.00019120      -0.00328711       0.00024777
Pt       8.42164077       4.86220846      26.90866256        1       0.00000000       0.00001826      -0.00026455       0.02218800
O        4.21082334       2.43110990      30.23257011        0       0.50000000       0.00000758      -0.00000815      -0.00559880
H        4.21081571       2.43112559      29.24130223        0       0.50000000      -0.00000722       0.00001575      -0.00189100
