38
Lattice="8.421641763931781 0.0 0.0 4.2108208819658905 7.293355709136913 0.0 0.0 0.0 46.87624170604845" Properties=species:S:1:pos:R:3:tags:I:1:initial_magmoms:R:1:forces:R:3 charge=0 spin=0 energy=-194.41481539303624 free_energy=-194.41481539303624 stress="0.010233839973807335 2.8663640350146125e-08 -1.90510309749925e-08 2.8663640350146125e-08 0.01023385301232338 5.546734769268369e-07 -1.90510309749925e-08 5.546734769268369e-07 -6.956188735784963e-05" pbc="T T T"
Pt      -0.00000001       0.00000015      19.95723445        4       0.00000000       0.00000268       0.00000642       0.00966706
Pt       2.80721394      -0.00000009      19.95723448        4       0.00000000      -0.00137642      -0.00031110       0.01199076
Pt       5.61442781      -0.00000017      19.95723450        4       0.00000000       0.00052923       0.00033596       0.01173216
Pt       1.40360720       2.43111836      19.95723436        4       0.00000000       0.00001988      -0.00061545       0.01175743
Pt       4.21082078       2.43111836      19.95723446        4       0.00000000       0.00000176      -0.00000434       0.01178699
Pt       7.01803484       2.43111844      19.95723431        4       0.00000000       0.00095150      -0.00103029       0.01200626
Pt       2.80721414       4.86223727      19.95723413        4       0.00000000       0.00042358       0.00133939       0.01200580
Pt       5.61442797       4.86223736      19.95723433        4       0.00000000      -0.00055337       0.00028248       0.01172961
Pt       8.42164142       4.86223724      19.95723439        4       0.00000000       0.00000006      -0.00000426       0.01205796
Pt       1.40360727       0.81037261      22.29206790        3       0.00000000      -0.00148493      -0.00276063      -0.03525040
Pt       4.21082126       0.81037249      22.29206793        3       0.00000000      -0.00143609       0.00098059      -0.03810241
Pt       7.01803475       0.81037258      22.29206787        3       0.00000000       0.00313489       0.00009416      -0.03524433
Pt       2.80721449       3.24149123      22.29206778        3       0.00000000       0.00159286       0.00072752      -0.03810824
Pt       5.61442761       3.24149123      22.29206789        3       0.00000000      -0.00017033      -0.00174108      -0.03809231
Pt       8.42164155       3.24149130      22.29206812        3       0.00000000      -0.00114081       0.00365300      -0.03777199
Pt       4.21082090       5.67260997      22.29206743        3       0.00000000      -0.00165464       0.00268753      -0.03521793
Pt       7.01803489       5.67261038      22.29206778        3       0.00000000       0.00370520      -0.00081341      -0.03776298
Pt       9.82524818       5.67261058      22.29206804        3       0.00000000      -0.00255714      -0.00282324      -0.03778266
Pt      -0.00000057       1.62074568      24.58417368        2       0.00000000       0.00134741       0.00283430       0.04347240
Pt       2.80721445       1.62074549      24.58417387        2       0.00000000      -0.02143770      -0.01344520      -0.00285843
Pt       5.61442780       1.62074538      24.58417368        2       0.00000000       0.02257150      -0.01151713      -0.00284955
Pt       1.40360635       4.05186441      24.58417386        2       0.00000000       0.00463205      -0.00414336       0.04309270
Pt       4.21082088       4.05186391      24.58417389        2       0.00000000      -0.00107391       0.02522072      -0.00300657
Pt       7.01803505       4.05186405      24.58417404        2       0.00000000      -0.00577148      -0.00221030       0.04309350
Pt       2.80721273       6.48298348      24.58417381        2       0.00000000      -0.00304357      -0.00023169       0.04316724
Pt       5.61442805       6.48298330      24.58417394        2       0.00000000       0.00168995      -0.00263545       0.04317666
Pt       8.42164222       6.48298341      24.58417373        2       0.00000000       0.00110433       0.00615649       0.04301232
Pt      -0.00000223      -0.00010109      26.91445455        1       0.00000000      -0.00000114       0.00043505      -0.01244462
Pt       2.80539724       0.00020232      26.91686691        1       0.00000000       0.00237124      -0.00489458       0.00273116
Pt       5.61380318      -0.00366640      26.91739974        1       0.00000000       0.00212412       0.00400534       0.00151723
Pt       1.40061642       2.43355698      26.91753041        1       0.00000000       0.00364419      -0.00456321       0.00082154
Pt       4.21082447       2.43111226      26.90852588        1       0.00000000      -0.00004527       0.00002493      -0.01228848
Pt       7.01884868       2.42954283      26.91698743        1       0.00000000       0.00200768       0.00376325       0.00189785
Pt       2.80819744       4.86362392      26.91683659        1       0.00000000      -0.00424263       0.00108065       0.00275141
Pt       5.61806588       4.86346429      26.91743413        1       0.00000000      -0.00588656       0.00060246       0.00156904
Pt       8.42164999       4.86235432      26.91572600        1       0.00000000       0.00000673      -0.00049544      -0.01402326
O        4.21080418       2.43111270      30.21783947        0       0.50000000       0.00000365       0.00000752      -0.04229471
H        4.21082319       2.43111920      29.22500063        0       0.50000000       0.00001154       0.00000232       0.04806178
