38
Lattice="8.421641763931781 0.0 0.0 4.2108208819658905 7.293355709136913 0.0 0.0 0.0 46.87624170604845" Properties=species:S:1:pos:R:3:tags:I:1:initial_magmoms:R:1:forces:R:3 charge=0 spin=0 energy=-194.41480967099034 free_energy=-194.41480967099034 stress="0.010233838111162186 1.3817795796455812e-08 2.88499482081761e-08 1.3817795796455812e-08 0.010233870707452297 5.89351543567318e-07 2.88499482081761e-08 5.89351543567318e-07 -6.958960875635967e-05" pbc="T T T"
Pt      -0.00000001       0.00000015      19.95723445        4       0.00000000       0.00000257       0.00000616       0.00966632
Pt       2.80721394      -0.00000009      19.95723448        4       0.00000000      -0.00137610      -0.00031108       0.01199096
Pt       5.61442781      -0.00000017      19.95723450        4       0.00000000       0.00052945       0.00033560       0.01173192
Pt       1.40360720       2.43111836      19.95723436        4       0.00000000       0.00002006      -0.00061541       0.01175781
Pt       4.21082078       2.43111836      19.95723446        4       0.00000000       0.00000205      -0.00000448       0.01178703
Pt       7.01803484       2.43111844      19.95723431        4       0.00000000       0.00095138      -0.00103022       0.01200609
Pt       2.80721414       4.86223727      19.95723413        4       0.00000000       0.00042379       0.00133955       0.01200537
Pt       5.61442797       4.86223736      19.95723433        4       0.00000000      -0.00055356       0.00028261       0.01172951
Pt       8.42164142       4.86223724      19.95723439        4       0.00000000       0.00000006      -0.00000391       0.01205826
Pt       1.40360727       0.81037261      22.29206790        3       0.00000000      -0.00148504      -0.00275983      -0.03525106
Pt       4.21082126       0.81037249      22.29206793        3       0.00000000      -0.00143632       0.00098040      -0.03809962
Pt       7.01803475       0.81037258      22.29206787        3       0.00000000       0.00313621       0.00009498      -0.03524453
Pt       2.80721449       3.24149123      22.29206778        3       0.00000000       0.00159287       0.00072822      -0.03810726
Pt       5.61442761       3.24149123      22.29206789        3       0.00000000      -0.00016990      -0.00174058      -0.03809381
Pt       8.42164155       3.24149130      22.29206812        3       0.00000000      -0.00114076       0.00365259      -0.03777429
Pt       4.21082090       5.67260997      22.29206743        3       0.00000000      -0.00165390       0.00268784      -0.03521768
Pt       7.01803489       5.67261038      22.29206778        3       0.00000000       0.00370461      -0.00081319      -0.03776128
Pt       9.82524818       5.67261058      22.29206804        3       0.00000000      -0.00255691      -0.00282336      -0.03778287
Pt      -0.00000057       1.62074568      24.58417368        2       0.00000000       0.00134925       0.00282932       0.04345973
Pt       2.80721445       1.62074549      24.58417387        2       0.00000000      -0.02143263      -0.01344713      -0.00285555
Pt       5.61442780       1.62074538      24.58417368        2       0.00000000       0.02256151      -0.01152134      -0.00284790
Pt       1.40360635       4.05186441      24.58417386        2       0.00000000       0.00463503      -0.00413943       0.04308844
Pt       4.21082088       4.05186391      24.58417389        2       0.00000000      -0.00107629       0.02521499      -0.00299628
Pt       7.01803505       4.05186405      24.58417404        2       0.00000000      -0.00577399      -0.00220540       0.04308768
Pt       2.80721273       6.48298348      24.58417381        2       0.00000000      -0.00304610      -0.00023361       0.04316796
Pt       5.61442805       6.48298330      24.58417394        2       0.00000000       0.00169249      -0.00263581       0.04317677
Pt       8.42164222       6.48298341      24.58417373        2       0.00000000       0.00110456       0.00616288       0.04301449
Pt      -0.00000388      -0.00010290      26.91445480        1       0.00000000       0.00001229       0.00044670      -0.01244645
Pt       2.80539438       0.00020232      26.91686890        1       0.00000000       0.00238091      -0.00489084       0.00272429
Pt       5.61380376      -0.00366747      26.91740139        1       0.00000000       0.00211389       0.00401776       0.00150977
Pt       1.40061407       2.43355763      26.91752636        1       0.00000000       0.00365501      -0.00456497       0.00083806
Pt       4.21082317       2.43111086      26.90852975        1       0.00000000      -0.00004365       0.00002827      -0.01231872
Pt       7.01884952       2.42954317      26.91698258        1       0.00000000       0.00199688       0.00376537       0.00192270
Pt       2.80819683       4.86362353      26.91683698        1       0.00000000      -0.00423817       0.00107950       0.00274476
Pt       5.61806536       4.86346388      26.91743475        1       0.00000000      -0.00588885       0.00059937       0.00157128
Pt       8.42164910       4.86235803      26.91572421        1       0.00000000       0.00003276      -0.00049657      -0.01400407
O        4.21081249       2.43110390      30.21782366        0       0.50000000      -0.00003618      -0.00003393      -0.04221040
H        4.21082507       2.43112804      29.22498597        0       0.50000000       0.00001069       0.00001899       0.04797239
