38
Lattice="8.421641763931781 0.0 0.0 4.2108208819658905 7.293355709136913 0.0 0.0 0.0 46.87624170604845" Properties=species:S:1:pos:R:3:tags:I:1:initial_magmoms:R:1:forces:R:3 charge=0 spin=0 energy=-194.4146914153751 free_energy=-194.4146914153751 stress="0.010195478796958923 2.335815096898841e-08 -4.968542910432916e-09 2.335815096898841e-08 0.010195462964475155 1.3913996177450372e-08 -4.968542910432916e-09 1.3913996177450372e-08 -0.00015397940296679735" pbc="T T T"
Pt      -0.00000001       0.00000015      19.95723445        4       0.00000000       0.00000315      -0.00000566       0.00971586
Pt       2.80721394      -0.00000009      19.95723448        4       0.00000000      -0.00135434      -0.00031552       0.01206178
Pt       5.61442781      -0.00000017      19.95723450        4       0.00000000       0.00042337       0.00035202       0.01177923
Pt       1.40360720       2.43111836      19.95723436        4       0.00000000       0.00009293      -0.00054873       0.01180605
Pt       4.21082078       2.43111836      19.95723446        4       0.00000000       0.00000283       0.00000337       0.01154009
Pt       7.01803484       2.43111844      19.95723431        4       0.00000000       0.00094684      -0.00102722       0.01208078
Pt       2.80721414       4.86223727      19.95723413        4       0.00000000       0.00040357       0.00134210       0.01206888
Pt       5.61442797       4.86223736      19.95723433        4       0.00000000      -0.00051742       0.00019773       0.01178031
Pt       8.42164142       4.86223724      19.95723439        4       0.00000000      -0.00000022      -0.00000021       0.01174322
Pt       1.40360727       0.81037261      22.29206790        3       0.00000000      -0.00140642      -0.00261546      -0.03534254
Pt       4.21082126       0.81037249      22.29206793        3       0.00000000      -0.00150103       0.00105144      -0.03793333
Pt       7.01803475       0.81037258      22.29206787        3       0.00000000       0.00297284       0.00009296      -0.03535476
Pt       2.80721449       3.24149123      22.29206778        3       0.00000000       0.00163159       0.00079081      -0.03805903
Pt       5.61442761       3.24149123      22.29206789        3       0.00000000      -0.00014442      -0.00179493      -0.03803979
Pt       8.42164155       3.24149130      22.29206812        3       0.00000000      -0.00088515       0.00345667      -0.03772066
Pt       4.21082090       5.67260997      22.29206743        3       0.00000000      -0.00156886       0.00252498      -0.03532821
Pt       7.01803489       5.67261038      22.29206778        3       0.00000000       0.00344795      -0.00097058      -0.03758069
Pt       9.82524818       5.67261058      22.29206804        3       0.00000000      -0.00254591      -0.00253755      -0.03761114
Pt      -0.00000057       1.62074568      24.58417368        2       0.00000000       0.00125212       0.01119625       0.02968905
Pt       2.80721445       1.62074549      24.58417387        2       0.00000000      -0.02648876      -0.01785031      -0.01251611
Pt       5.61442780       1.62074538      24.58417368        2       0.00000000       0.02859658      -0.01423478      -0.01252813
Pt       1.40360635       4.05186441      24.58417386        2       0.00000000       0.01042107      -0.00815006       0.03225997
Pt       4.21082088       4.05186391      24.58417389        2       0.00000000      -0.00207444       0.03186498      -0.01248456
Pt       7.01803505       4.05186405      24.58417404        2       0.00000000      -0.01239614      -0.00481293       0.03223954
Pt       2.80721273       6.48298348      24.58417381        2       0.00000000      -0.01025877      -0.00444727       0.02956762
Pt       5.61442805       6.48298330      24.58417394        2       0.00000000       0.00903171      -0.00661993       0.02954538
Pt       8.42164222       6.48298341      24.58417373        2       0.00000000       0.00191389       0.01305873       0.03207728
Pt      -0.00000025       0.00003065      26.90630347        1       0.00000000      -0.00002558       0.00025350       0.03122966
Pt       2.80587749      -0.00122077      26.91706121        1       0.00000000       0.00249515       0.00200650       0.00127069
Pt       5.61452184      -0.00272514      26.91756260        1       0.00000000      -0.00255850       0.00191928       0.00025439
Pt       1.40137196       2.43228845      26.91750831        1       0.00000000       0.00274242       0.00135286       0.00014676
Pt       4.21082069       2.43112175      26.90206598        1       0.00000000      -0.00000095      -0.00000897       0.03032493
Pt       7.01957298       2.43048870      26.91696690        1       0.00000000      -0.00277218       0.00128597       0.00114824
Pt       2.80701185       4.86408778      26.91704552        1       0.00000000       0.00029048      -0.00325923       0.00121768
Pt       5.61656786       4.86380048      26.91760390        1       0.00000000      -0.00020226      -0.00330233       0.00024822
Pt       8.42164056       4.86220663      26.90866346        1       0.00000000       0.00003118      -0.00023939       0.02217695
O        4.21082602       2.43111410      30.23257356        0       0.50000000       0.00001035      -0.00002227      -0.00559099
H        4.21081600       2.43112462      29.24130552        0       0.50000000      -0.00000864       0.00001295      -0.00188269
