38
Lattice="8.421641763931781 0.0 0.0 4.2108208819658905 7.293355709136913 0.0 0.0 0.0 46.87624170604845" Properties=species:S:1:pos:R:3:tags:I:1:initial_magmoms:R:1:forces:R:3 charge=0 spin=0 energy=-194.4149012237247 free_energy=-194.4149012237247 stress="0.010227186605334282 8.984167720882397e-08 -1.1017874612662126e-08 8.984167720882397e-08 0.010227099992334843 -2.9394776390745392e-08 -1.1017874612662126e-08 -2.9394776390745392e-08 -0.00011149816418765113" pbc="T T T"
Pt      -0.00000001       0.00000015      19.95723445        4       0.00000000       0.00000858      -0.00000614       0.00977338
Pt       2.80721394      -0.00000009      19.95723448        4       0.00000000      -0.00137794      -0.00031757       0.01202350
Pt       5.61442781      -0.00000017      19.95723450        4       0.00000000       0.00043747       0.00037012       0.01174615
Pt       1.40360720       2.43111836      19.95723436        4       0.00000000       0.00010331      -0.00057935       0.01177283
Pt       4.21082078       2.43111836      19.95723446        4       0.00000000      -0.00000166       0.00000109       0.01173027
Pt       7.01803484       2.43111844      19.95723431        4       0.00000000       0.00096114      -0.00104725       0.01204577
Pt       2.80721414       4.86223727      19.95723413        4       0.00000000       0.00041052       0.00136280       0.01202953
Pt       5.61442797       4.86223736      19.95723433        4       0.00000000      -0.00054348       0.00020758       0.01174683
Pt       8.42164142       4.86223724      19.95723439        4       0.00000000      -0.00000067       0.00000363       0.01195972
Pt       1.40360727       0.81037261      22.29206790        3       0.00000000      -0.00146534      -0.00270047      -0.03534744
Pt       4.21082126       0.81037249      22.29206793        3       0.00000000      -0.00155992       0.00102562      -0.03789357
Pt       7.01803475       0.81037258      22.29206787        3       0.00000000       0.00308017       0.00008795      -0.03543697
Pt       2.80721449       3.24149123      22.29206778        3       0.00000000       0.00162341       0.00087076      -0.03804699
Pt       5.61442761       3.24149123      22.29206789        3       0.00000000      -0.00008810      -0.00182936      -0.03802698
Pt       8.42164155       3.24149130      22.29206812        3       0.00000000      -0.00095022       0.00355076      -0.03788753
Pt       4.21082090       5.67260997      22.29206743        3       0.00000000      -0.00163520       0.00261295      -0.03537912
Pt       7.01803489       5.67261038      22.29206778        3       0.00000000       0.00356233      -0.00097443      -0.03771499
Pt       9.82524818       5.67261058      22.29206804        3       0.00000000      -0.00259739      -0.00263323      -0.03777338
Pt      -0.00000057       1.62074568      24.58417368        2       0.00000000       0.00103515       0.00572594       0.03952463
Pt       2.80721445       1.62074549      24.58417387        2       0.00000000      -0.02150161      -0.01514983      -0.00396478
Pt       5.61442780       1.62074538      24.58417368        2       0.00000000       0.02386247      -0.01135845      -0.00399114
Pt       1.40360635       4.05186441      24.58417386        2       0.00000000       0.00648857      -0.00572152       0.04052964
Pt       4.21082088       4.05186391      24.58417389        2       0.00000000      -0.00215501       0.02623945      -0.00390084
Pt       7.01803505       4.05186405      24.58417404        2       0.00000000      -0.00832743      -0.00264786       0.04075993
Pt       2.80721273       6.48298348      24.58417381        2       0.00000000      -0.00538488      -0.00181113       0.03917503
Pt       5.61442805       6.48298330      24.58417394        2       0.00000000       0.00438690      -0.00370543       0.03923684
Pt       8.42164222       6.48298341      24.58417373        2       0.00000000       0.00174445       0.00842241       0.04025278
Pt       0.00001640       0.00001796      26.91182550        1       0.00000000       0.00005009       0.00050037       0.00182758
Pt       2.80603278      -0.00104957      26.91725036        1       0.00000000       0.00113817       0.00056374       0.00085299
Pt       5.61447714      -0.00272210      26.91752400        1       0.00000000      -0.00150418       0.00134144       0.00094425
Pt       1.40150952       2.43228328      26.91746424        1       0.00000000       0.00103828       0.00109464       0.00075017
Pt       4.21081454       2.43110581      26.90733464        1       0.00000000       0.00029606       0.00012771      -0.00255773
Pt       7.01933760       2.43048143      26.91716726        1       0.00000000      -0.00070413       0.00117931       0.00052479
Pt       2.80712392       4.86392675      26.91722269        1       0.00000000      -0.00035704      -0.00176810       0.00082428
Pt       5.61651064       4.86380009      26.91758885        1       0.00000000       0.00046062      -0.00241464       0.00075299
Pt       8.42169261       4.86223358      26.91351758        1       0.00000000      -0.00025329      -0.00064116      -0.00331337
O        4.21135306       2.43113504      30.22608169        0       0.50000000       0.00087940       0.00004969       0.03844977
H        4.21004715       2.43109568      29.23551883        0       0.50000000      -0.00115960      -0.00003207      -0.03799871
