38
Lattice="8.421641763931781 0.0 0.0 4.2108208819658905 7.293355709136913 0.0 0.0 0.0 46.87624170604845" Properties=species:S:1:pos:R:3:tags:I:1:initial_magmoms:R:1:forces:R:3 charge=0 spin=0 energy=-194.41490885311924 free_energy=-194.41490885311924 stress="0.010227112099528313 7.995812012495662e-08 -3.20980682033678e-08 7.995812012495662e-08 0.010227067396044731 9.636017317404821e-09 -3.20980682033678e-08 9.636017317404821e-09 -0.00011163258750457317" pbc="T T T"
Pt      -0.00000001       0.00000015      19.95723445        4       0.00000000       0.00000856      -0.00000615       0.00977317
Pt       2.80721394      -0.00000009      19.95723448        4       0.00000000      -0.00137789      -0.00031775       0.01202357
Pt       5.61442781      -0.00000017      19.95723450        4       0.00000000       0.00043731       0.00037021       0.01174660
Pt       1.40360720       2.43111836      19.95723436        4       0.00000000       0.00010347      -0.00057916       0.01177278
Pt       4.21082078       2.43111836      19.95723446        4       0.00000000      -0.00000167       0.00000113       0.01173021
Pt       7.01803484       2.43111844      19.95723431        4       0.00000000       0.00096112      -0.00104696       0.01204604
Pt       2.80721414       4.86223727      19.95723413        4       0.00000000       0.00041050       0.00136252       0.01202961
Pt       5.61442797       4.86223736      19.95723433        4       0.00000000      -0.00054344       0.00020756       0.01174641
Pt       8.42164142       4.86223724      19.95723439        4       0.00000000      -0.00000100       0.00000368       0.01195968
Pt       1.40360727       0.81037261      22.29206790        3       0.00000000      -0.00146607      -0.00270063      -0.03534677
Pt       4.21082126       0.81037249      22.29206793        3       0.00000000      -0.00156019       0.00102563      -0.03789245
Pt       7.01803475       0.81037258      22.29206787        3       0.00000000       0.00308100       0.00008794      -0.03543613
Pt       2.80721449       3.24149123      22.29206778        3       0.00000000       0.00162344       0.00087148      -0.03804708
Pt       5.61442761       3.24149123      22.29206789        3       0.00000000      -0.00008799      -0.00182951      -0.03802701
Pt       8.42164155       3.24149130      22.29206812        3       0.00000000      -0.00095050       0.00355100      -0.03788747
Pt       4.21082090       5.67260997      22.29206743        3       0.00000000      -0.00163539       0.00261355      -0.03537823
Pt       7.01803489       5.67261038      22.29206778        3       0.00000000       0.00356309      -0.00097421      -0.03771447
Pt       9.82524818       5.67261058      22.29206804        3       0.00000000      -0.00259773      -0.00263367      -0.03777335
Pt      -0.00000057       1.62074568      24.58417368        2       0.00000000       0.00103506       0.00572642       0.03953266
Pt       2.80721445       1.62074549      24.58417387        2       0.00000000      -0.02150651      -0.01515481      -0.00397313
Pt       5.61442780       1.62074538      24.58417368        2       0.00000000       0.02386772      -0.01136160      -0.00400111
Pt       1.40360635       4.05186441      24.58417386        2       0.00000000       0.00648961      -0.00572436       0.04052268
Pt       4.21082088       4.05186391      24.58417389        2       0.00000000      -0.00215463       0.02623946      -0.00391647
Pt       7.01803505       4.05186405      24.58417404        2       0.00000000      -0.00832814      -0.00265074       0.04074778
Pt       2.80721273       6.48298348      24.58417381        2       0.00000000      -0.00538577      -0.00180799       0.03917861
Pt       5.61442805       6.48298330      24.58417394        2       0.00000000       0.00438934      -0.00370112       0.03923768
Pt       8.42164222       6.48298341      24.58417373        2       0.00000000       0.00174273       0.00842662       0.04024394
Pt       0.00001741       0.00001601      26.91182505        1       0.00000000       0.00002886       0.00051748       0.00181369
Pt       2.80603451      -0.00104936      26.91725091        1       0.00000000       0.00112059       0.00056262       0.00084805
Pt       5.61447482      -0.00272211      26.91752365        1       0.00000000      -0.00147867       0.00134004       0.00094434
Pt       1.40151154       2.43228385      26.91746305        1       0.00000000       0.00101780       0.00108572       0.00074932
Pt       4.21081424       2.43110563      26.90733298        1       0.00000000       0.00029647       0.00011994      -0.00257294
Pt       7.01933645       2.43048309      26.91716719        1       0.00000000      -0.00068686       0.00116076       0.00052220
Pt       2.80712440       4.86392416      26.91722146        1       0.00000000      -0.00036543      -0.00174599       0.00083320
Pt       5.61651117       4.86379870      26.91758790        1       0.00000000       0.00045594      -0.00240025       0.00076257
Pt       8.42169072       4.86223460      26.91351381        1       0.00000000      -0.00024399      -0.00063114      -0.00330268
O        4.21134981       2.43112427      30.22602251        0       0.50000000       0.00089526      -0.00000174       0.03860787
H        4.21005010       2.43111142      29.23546124        0       0.50000000      -0.00115611      -0.00000605      -0.03810295
