38
Lattice="8.421641763931781 0.0 0.0 4.2108208819658905 7.293355709136913 0.0 0.0 0.0 46.87624170604845" Properties=species:S:1:pos:R:3:tags:I:1:initial_magmoms:R:1:forces:R:3 charge=0 spin=0 energy=-194.4146914153751 free_energy=-194.4146914153751 stress="0.010195472277700901 3.861169517449525e-08 1.6204813491071945e-08 3.861169517449525e-08 0.010195478796958923 -2.6612603232223364e-09 1.6204813491071945e-08 -2.6612603232223364e-09 -0.00015395338414236903" pbc="T T T"
Pt      -0.00000001       0.00000015      19.95723445        4       0.00000000       0.00000311      -0.00000547       0.00971594
Pt       2.80721394      -0.00000009      19.95723448        4       0.00000000      -0.00135420      -0.00031533       0.01206224
Pt       5.61442781      -0.00000017      19.95723450        4       0.00000000       0.00042332       0.00035202       0.01177953
Pt       1.40360720       2.43111836      19.95723436        4       0.00000000       0.00009306      -0.00054868       0.01180610
Pt       4.21082078       2.43111836      19.95723446        4       0.00000000       0.00000265       0.00000303       0.01154000
Pt       7.01803484       2.43111844      19.95723431        4       0.00000000       0.00094681      -0.00102724       0.01208071
Pt       2.80721414       4.86223727      19.95723413        4       0.00000000       0.00040349       0.00134176       0.01206894
Pt       5.61442797       4.86223736      19.95723433        4       0.00000000      -0.00051711       0.00019756       0.01178061
Pt       8.42164142       4.86223724      19.95723439        4       0.00000000      -0.00000008      -0.00000042       0.01174327
Pt       1.40360727       0.81037261      22.29206790        3       0.00000000      -0.00140656      -0.00261549      -0.03534293
Pt       4.21082126       0.81037249      22.29206793        3       0.00000000      -0.00150161       0.00105104      -0.03793304
Pt       7.01803475       0.81037258      22.29206787        3       0.00000000       0.00297257       0.00009293      -0.03535520
Pt       2.80721449       3.24149123      22.29206778        3       0.00000000       0.00163124       0.00079094      -0.03805739
Pt       5.61442761       3.24149123      22.29206789        3       0.00000000      -0.00014443      -0.00179473      -0.03804004
Pt       8.42164155       3.24149130      22.29206812        3       0.00000000      -0.00088521       0.00345690      -0.03772130
Pt       4.21082090       5.67260997      22.29206743        3       0.00000000      -0.00156884       0.00252489      -0.03532826
Pt       7.01803489       5.67261038      22.29206778        3       0.00000000       0.00344747      -0.00097089      -0.03758032
Pt       9.82524818       5.67261058      22.29206804        3       0.00000000      -0.00254637      -0.00253783      -0.03761031
Pt      -0.00000057       1.62074568      24.58417368        2       0.00000000       0.00125198       0.01119666       0.02969175
Pt       2.80721445       1.62074549      24.58417387        2       0.00000000      -0.02648968      -0.01784991      -0.01252092
Pt       5.61442780       1.62074538      24.58417368        2       0.00000000       0.02859785      -0.01423418      -0.01253345
Pt       1.40360635       4.05186441      24.58417386        2       0.00000000       0.01041897      -0.00814862       0.03226384
Pt       4.21082088       4.05186391      24.58417389        2       0.00000000      -0.00207389       0.03186548      -0.01248650
Pt       7.01803505       4.05186405      24.58417404        2       0.00000000      -0.01239356      -0.00481064       0.03224466
Pt       2.80721273       6.48298348      24.58417381        2       0.00000000      -0.01025920      -0.00444824       0.02956996
Pt       5.61442805       6.48298330      24.58417394        2       0.00000000       0.00903179      -0.00662126       0.02954571
Pt       8.42164222       6.48298341      24.58417373        2       0.00000000       0.00191440       0.01305686       0.03208033
Pt      -0.00000043       0.00003151      26.90630356        1       0.00000000      -0.00001101       0.00023987       0.03122684
Pt       2.80587759      -0.00122008      26.91706140        1       0.00000000       0.00249644       0.00199814       0.00127065
Pt       5.61452194      -0.00272413      26.91756318        1       0.00000000      -0.00255432       0.00190994       0.00025566
Pt       1.40137281       2.43228857      26.91750892        1       0.00000000       0.00273399       0.00135463       0.00014502
Pt       4.21082105       2.43112183      26.90206611        1       0.00000000      -0.00000451      -0.00000593       0.03032446
Pt       7.01957228       2.43048926      26.91696659        1       0.00000000      -0.00276029       0.00128633       0.00114834
Pt       2.80701294       4.86408734      26.91704583        1       0.00000000       0.00028472      -0.00325118       0.00121791
Pt       5.61656771       4.86380001      26.91760392        1       0.00000000      -0.00019412      -0.00329661       0.00024885
Pt       8.42164182       4.86220761      26.90866404        1       0.00000000       0.00002715      -0.00024098       0.02216525
O        4.21082184       2.43110942      30.23256578        0       0.50000000      -0.00001290      -0.00001183      -0.00565681
H        4.21081657       2.43112610      29.24129555        0       0.50000000      -0.00000318       0.00001636      -0.00181017
