38
Lattice="8.421641763931781 0.0 0.0 4.2108208819658905 7.293355709136913 0.0 0.0 0.0 46.87624170604845" Properties=species:S:1:pos:R:3:tags:I:1:initial_magmoms:R:1:forces:R:3 charge=0 spin=0 energy=-194.41468950802647 free_energy=-194.41468950802647 stress="0.010195501148700714 2.7804057722846665e-08 9.09122288561548e-09 2.7804057722846665e-08 0.010195483453571796 -2.505410101605321e-08 9.09122288561548e-09 -2.505410101605321e-08 -0.00015397151582874358" pbc="T T T"
Pt      -0.00000001       0.00000015      19.95723445        4       0.00000000       0.00000330      -0.00000572       0.00971594
Pt       2.80721394      -0.00000009      19.95723448        4       0.00000000      -0.00135411      -0.00031534       0.01206191
Pt       5.61442781      -0.00000017      19.95723450        4       0.00000000       0.00042306       0.00035186       0.01177927
Pt       1.40360720       2.43111836      19.95723436        4       0.00000000       0.00009312      -0.00054853       0.01180601
Pt       4.21082078       2.43111836      19.95723446        4       0.00000000       0.00000260       0.00000307       0.01154034
Pt       7.01803484       2.43111844      19.95723431        4       0.00000000       0.00094653      -0.00102719       0.01208067
Pt       2.80721414       4.86223727      19.95723413        4       0.00000000       0.00040338       0.00134158       0.01206909
Pt       5.61442797       4.86223736      19.95723433        4       0.00000000      -0.00051696       0.00019756       0.01178048
Pt       8.42164142       4.86223724      19.95723439        4       0.00000000      -0.00000003      -0.00000018       0.01174350
Pt       1.40360727       0.81037261      22.29206790        3       0.00000000      -0.00140727      -0.00261611      -0.03534373
Pt       4.21082126       0.81037249      22.29206793        3       0.00000000      -0.00150167       0.00105124      -0.03793188
Pt       7.01803475       0.81037258      22.29206787        3       0.00000000       0.00297322       0.00009236      -0.03535744
Pt       2.80721449       3.24149123      22.29206778        3       0.00000000       0.00163106       0.00079160      -0.03805677
Pt       5.61442761       3.24149123      22.29206789        3       0.00000000      -0.00014409      -0.00179460      -0.03803827
Pt       8.42164155       3.24149130      22.29206812        3       0.00000000      -0.00088511       0.00345682      -0.03772106
Pt       4.21082090       5.67260997      22.29206743        3       0.00000000      -0.00156891       0.00252650      -0.03532954
Pt       7.01803489       5.67261038      22.29206778        3       0.00000000       0.00344678      -0.00097036      -0.03758129
Pt       9.82524818       5.67261058      22.29206804        3       0.00000000      -0.00254600      -0.00253675      -0.03761072
Pt      -0.00000057       1.62074568      24.58417368        2       0.00000000       0.00125204       0.01120008       0.02968883
Pt       2.80721445       1.62074549      24.58417387        2       0.00000000      -0.02647748      -0.01784409      -0.01250557
Pt       5.61442780       1.62074538      24.58417368        2       0.00000000       0.02858544      -0.01422781      -0.01251582
Pt       1.40360635       4.05186441      24.58417386        2       0.00000000       0.01042039      -0.00815022       0.03226124
Pt       4.21082088       4.05186391      24.58417389        2       0.00000000      -0.00207347       0.03185293      -0.01247325
Pt       7.01803505       4.05186405      24.58417404        2       0.00000000      -0.01239535      -0.00481269       0.03224384
Pt       2.80721273       6.48298348      24.58417381        2       0.00000000      -0.01026284      -0.00445053       0.02956753
Pt       5.61442805       6.48298330      24.58417394        2       0.00000000       0.00903597      -0.00662273       0.02954223
Pt       8.42164222       6.48298341      24.58417373        2       0.00000000       0.00191445       0.01305734       0.03208061
Pt       0.00000014       0.00003115      26.90630213        1       0.00000000      -0.00002185       0.00023795       0.03122561
Pt       2.80587857      -0.00122026      26.91706123        1       0.00000000       0.00249365       0.00199954       0.00127008
Pt       5.61452129      -0.00272404      26.91756264        1       0.00000000      -0.00255082       0.00191160       0.00025566
Pt       1.40137333       2.43228807      26.91750852        1       0.00000000       0.00273547       0.00135203       0.00014635
Pt       4.21082088       2.43112183      26.90207447        1       0.00000000      -0.00000000      -0.00000812       0.03027893
Pt       7.01957167       2.43048837      26.91696661        1       0.00000000      -0.00276281       0.00128536       0.00114834
Pt       2.80701337       4.86408667      26.91704572        1       0.00000000       0.00028564      -0.00325259       0.00121787
Pt       5.61656750       4.86379950      26.91760378        1       0.00000000      -0.00019518      -0.00330121       0.00024798
Pt       8.42164113       4.86220573      26.90866307        1       0.00000000       0.00002889      -0.00024540       0.02218885
O        4.21082170       2.43111895      30.23258220        0       0.50000000      -0.00000758       0.00001716      -0.00551381
H        4.21081664       2.43112121      29.24131509        0       0.50000000      -0.00000335       0.00000356      -0.00196208
