38
Lattice="8.421641763931781 0.0 0.0 4.2108208819658905 7.293355709136913 0.0 0.0 0.0 46.87624170604845" Properties=species:S:1:pos:R:3:tags:I:1:initial_magmoms:R:1:forces:R:3 charge=0 spin=0 energy=-194.41491457516514 free_energy=-194.41491457516514 stress="0.010227184742689133 7.355743747439192e-08 -2.8903221149789715e-08 7.355743747439192e-08 0.010227099061012268 -2.266754783875058e-08 -2.8903221149789715e-08 -2.266754783875058e-08 -0.00011144169548060745" pbc="T T T"
Pt      -0.00000001       0.00000015      19.95723445        4       0.00000000       0.00000824      -0.00000595       0.00977317
Pt       2.80721394      -0.00000009      19.95723448        4       0.00000000      -0.00137801      -0.00031718       0.01202346
Pt       5.61442781      -0.00000017      19.95723450        4       0.00000000       0.00043752       0.00037058       0.01174636
Pt       1.40360720       2.43111836      19.95723436        4       0.00000000       0.00010354      -0.00057946       0.01177232
Pt       4.21082078       2.43111836      19.95723446        4       0.00000000      -0.00000161       0.00000103       0.01173046
Pt       7.01803484       2.43111844      19.95723431        4       0.00000000       0.00096119      -0.00104740       0.01204564
Pt       2.80721414       4.86223727      19.95723413        4       0.00000000       0.00041061       0.00136282       0.01202927
Pt       5.61442797       4.86223736      19.95723433        4       0.00000000      -0.00054364       0.00020756       0.01174645
Pt       8.42164142       4.86223724      19.95723439        4       0.00000000      -0.00000086       0.00000380       0.01195962
Pt       1.40360727       0.81037261      22.29206790        3       0.00000000      -0.00146549      -0.00270070      -0.03534762
Pt       4.21082126       0.81037249      22.29206793        3       0.00000000      -0.00156083       0.00102565      -0.03789297
Pt       7.01803475       0.81037258      22.29206787        3       0.00000000       0.00308132       0.00008763      -0.03543704
Pt       2.80721449       3.24149123      22.29206778        3       0.00000000       0.00162364       0.00087126      -0.03804609
Pt       5.61442761       3.24149123      22.29206789        3       0.00000000      -0.00008874      -0.00182890      -0.03802576
Pt       8.42164155       3.24149130      22.29206812        3       0.00000000      -0.00095018       0.00355149      -0.03788863
Pt       4.21082090       5.67260997      22.29206743        3       0.00000000      -0.00163522       0.00261349      -0.03538035
Pt       7.01803489       5.67261038      22.29206778        3       0.00000000       0.00356221      -0.00097392      -0.03771451
Pt       9.82524818       5.67261058      22.29206804        3       0.00000000      -0.00259712      -0.00263309      -0.03777412
Pt      -0.00000057       1.62074568      24.58417368        2       0.00000000       0.00103550       0.00571802       0.03953821
Pt       2.80721445       1.62074549      24.58417387        2       0.00000000      -0.02149056      -0.01514477      -0.00394804
Pt       5.61442780       1.62074538      24.58417368        2       0.00000000       0.02385270      -0.01135330      -0.00397582
Pt       1.40360635       4.05186441      24.58417386        2       0.00000000       0.00648653      -0.00572281       0.04053067
Pt       4.21082088       4.05186391      24.58417389        2       0.00000000      -0.00215363       0.02622725      -0.00389138
Pt       7.01803505       4.05186405      24.58417404        2       0.00000000      -0.00832794      -0.00264942       0.04076371
Pt       2.80721273       6.48298348      24.58417381        2       0.00000000      -0.00538003      -0.00180612       0.03918074
Pt       5.61442805       6.48298330      24.58417394        2       0.00000000       0.00438325      -0.00370184       0.03924195
Pt       8.42164222       6.48298341      24.58417373        2       0.00000000       0.00174358       0.00841985       0.04025508
Pt       0.00001792       0.00001406      26.91183106        1       0.00000000       0.00002454       0.00052628       0.00179312
Pt       2.80603317      -0.00105036      26.91725000        1       0.00000000       0.00113546       0.00056555       0.00085360
Pt       5.61447633      -0.00272317      26.91752348        1       0.00000000      -0.00149893       0.00134485       0.00094298
Pt       1.40151100       2.43228224      26.91746364        1       0.00000000       0.00102900       0.00109052       0.00074949
Pt       4.21081426       2.43110618      26.90734555        1       0.00000000       0.00029721       0.00011939      -0.00261710
Pt       7.01933736       2.43047957      26.91716822        1       0.00000000      -0.00070002       0.00117827       0.00052267
Pt       2.80712376       4.86392636      26.91722074        1       0.00000000      -0.00036358      -0.00177138       0.00083465
Pt       5.61650952       4.86379989      26.91758870        1       0.00000000       0.00046938      -0.00242192       0.00075473
Pt       8.42169062       4.86223154      26.91351872        1       0.00000000      -0.00024555      -0.00063232      -0.00334036
O        4.21135091       2.43115573      30.22606239        0       0.50000000       0.00089238       0.00006122       0.03835104
H        4.21004997       2.43108723      29.23549712        0       0.50000000      -0.00115592      -0.00005613      -0.03785944
