38
Lattice="8.421641763931781 0.0 0.0 4.2108208819658905 7.293355709136913 0.0 0.0 0.0 46.87624170604845" Properties=species:S:1:pos:R:3:tags:I:1:initial_magmoms:R:1:forces:R:3 charge=0 spin=0 energy=-194.41437288815342 free_energy=-194.41437288815342 stress="0.010243491269648075 3.742312060239783e-08 1.1028647328714669e-08 3.742312060239783e-08 0.010243457742035389 -1.8522956501954013e-09 1.1028647328714669e-08 -1.8522956501954013e-09 -6.929885421413928e-05" pbc="T T T"
Pt      -0.00000001       0.00000015      19.95723445        4       0.00000000       0.00000325      -0.00000001       0.00948534
Pt       2.80721394      -0.00000009      19.95723448        4       0.00000000      -0.00143165      -0.00042911       0.01196403
Pt       5.61442781      -0.00000017      19.95723450        4       0.00000000       0.00051602       0.00038812       0.01170164
Pt       1.40360720       2.43111836      19.95723436        4       0.00000000       0.00007498      -0.00063893       0.01172781
Pt       4.21082078       2.43111836      19.95723446        4       0.00000000       0.00000245       0.00000073       0.01166006
Pt       7.01803484       2.43111844      19.95723431        4       0.00000000       0.00108329      -0.00102973       0.01198139
Pt       2.80721414       4.86223727      19.95723413        4       0.00000000       0.00034475       0.00145753       0.01197651
Pt       5.61442797       4.86223736      19.95723433        4       0.00000000      -0.00059245       0.00025309       0.01170069
Pt       8.42164142       4.86223724      19.95723439        4       0.00000000       0.00000054      -0.00000301       0.01212541
Pt       1.40360727       0.81037261      22.29206790        3       0.00000000      -0.00119995      -0.00260837      -0.03410637
Pt       4.21082126       0.81037249      22.29206793        3       0.00000000      -0.00152600       0.00097935      -0.03877994
Pt       7.01803475       0.81037258      22.29206787        3       0.00000000       0.00286068       0.00026352      -0.03411308
Pt       2.80721449       3.24149123      22.29206778        3       0.00000000       0.00160779       0.00083315      -0.03884796
Pt       5.61442761       3.24149123      22.29206789        3       0.00000000      -0.00009417      -0.00179442      -0.03883133
Pt       8.42164155       3.24149130      22.29206812        3       0.00000000      -0.00115014       0.00398745      -0.03782753
Pt       4.21082090       5.67260997      22.29206743        3       0.00000000      -0.00166014       0.00235065      -0.03409058
Pt       7.01803489       5.67261038      22.29206778        3       0.00000000       0.00401986      -0.00099428      -0.03775126
Pt       9.82524818       5.67261058      22.29206804        3       0.00000000      -0.00285825      -0.00301806      -0.03777698
Pt      -0.00000057       1.62074568      24.58417368        2       0.00000000       0.00117276      -0.00065334       0.05385869
Pt       2.80721445       1.62074549      24.58417387        2       0.00000000      -0.02728411      -0.01796132      -0.01066041
Pt       5.61442780       1.62074538      24.58417368        2       0.00000000       0.02919285      -0.01465818      -0.01069027
Pt       1.40360635       4.05186441      24.58417386        2       0.00000000       0.00139149      -0.00313044       0.05156840
Pt       4.21082088       4.05186391      24.58417389        2       0.00000000      -0.00188580       0.03257523      -0.01070153
Pt       7.01803505       4.05186405      24.58417404        2       0.00000000      -0.00343197       0.00035008       0.05153444
Pt       2.80721273       6.48298348      24.58417381        2       0.00000000       0.00003460       0.00137241       0.05378314
Pt       5.61442805       6.48298330      24.58417394        2       0.00000000      -0.00117738      -0.00067026       0.05379250
Pt       8.42164222       6.48298341      24.58417373        2       0.00000000       0.00198495       0.00278043       0.05152256
Pt      -0.00000468      -0.00000427      26.91888306        1       0.00000000       0.00002345       0.00015607      -0.03534208
Pt       2.80647402       0.00005355      26.91776970        1       0.00000000      -0.00507607      -0.01181258      -0.00111624
Pt       5.61427891      -0.00224322      26.91811609        1       0.00000000       0.00374282      -0.00888247      -0.00139003
Pt       1.40176061       2.43233580      26.91812521        1       0.00000000      -0.00895812       0.00087572      -0.00165118
Pt       4.21081943       2.43111292      26.90409439        1       0.00000000      -0.00003319       0.00004186       0.00071218
Pt       7.01829715       2.43044216      26.91773736        1       0.00000000       0.01229664       0.00126437      -0.00135820
Pt       2.80768646       4.86286786      26.91772979        1       0.00000000      -0.00718685       0.01052637      -0.00106068
Pt       5.61642607       4.86326523      26.91814259        1       0.00000000       0.00518059       0.00802253      -0.00133662
Pt       8.42164564       4.86225098      26.91920772        1       0.00000000       0.00002377      -0.00019619      -0.03346547
O        4.21082228       2.43111902      30.19491145        0       0.50000000      -0.00000852       0.00000069       0.00702305
H        4.21081874       2.43111907      29.20275024        0       0.50000000      -0.00000260       0.00000155       0.01277986
