38
Lattice="8.421641763931781 0.0 0.0 4.2108208819658905 7.293355709136913 0.0 0.0 0.0 46.87624170604845" Properties=species:S:1:pos:R:3:tags:I:1:initial_magmoms:R:1:forces:R:3 charge=0 spin=0 energy=-194.4143709808048 free_energy=-194.4143709808048 stress="0.010243489407002926 5.145195913769385e-08 2.47253684193538e-08 5.145195913769385e-08 0.010243481956422329 -1.4342322884886016e-08 2.47253684193538e-08 -1.4342322884886016e-08 -6.931734969839454e-05" pbc="T T T"
Pt      -0.00000001       0.00000015      19.95723445        4       0.00000000       0.00000299       0.00000002       0.00948524
Pt       2.80721394      -0.00000009      19.95723448        4       0.00000000      -0.00143165      -0.00042899       0.01196400
Pt       5.61442781      -0.00000017      19.95723450        4       0.00000000       0.00051605       0.00038818       0.01170160
Pt       1.40360720       2.43111836      19.95723436        4       0.00000000       0.00007480      -0.00063897       0.01172787
Pt       4.21082078       2.43111836      19.95723446        4       0.00000000       0.00000251       0.00000056       0.01166019
Pt       7.01803484       2.43111844      19.95723431        4       0.00000000       0.00108324      -0.00102965       0.01198192
Pt       2.80721414       4.86223727      19.95723413        4       0.00000000       0.00034484       0.00145797       0.01197651
Pt       5.61442797       4.86223736      19.95723433        4       0.00000000      -0.00059264       0.00025313       0.01170077
Pt       8.42164142       4.86223724      19.95723439        4       0.00000000       0.00000048      -0.00000315       0.01212531
Pt       1.40360727       0.81037261      22.29206790        3       0.00000000      -0.00119992      -0.00260826      -0.03410649
Pt       4.21082126       0.81037249      22.29206793        3       0.00000000      -0.00152580       0.00097871      -0.03878048
Pt       7.01803475       0.81037258      22.29206787        3       0.00000000       0.00286086       0.00026342      -0.03411220
Pt       2.80721449       3.24149123      22.29206778        3       0.00000000       0.00160778       0.00083274      -0.03884824
Pt       5.61442761       3.24149123      22.29206789        3       0.00000000      -0.00009399      -0.00179462      -0.03883297
Pt       8.42164155       3.24149130      22.29206812        3       0.00000000      -0.00115002       0.00398741      -0.03782750
Pt       4.21082090       5.67260997      22.29206743        3       0.00000000      -0.00166007       0.00235001      -0.03409033
Pt       7.01803489       5.67261038      22.29206778        3       0.00000000       0.00402003      -0.00099392      -0.03774970
Pt       9.82524818       5.67261058      22.29206804        3       0.00000000      -0.00285780      -0.00301829      -0.03777698
Pt      -0.00000057       1.62074568      24.58417368        2       0.00000000       0.00117290      -0.00065609       0.05386121
Pt       2.80721445       1.62074549      24.58417387        2       0.00000000      -0.02728283      -0.01796000      -0.01065460
Pt       5.61442780       1.62074538      24.58417368        2       0.00000000       0.02919167      -0.01465782      -0.01068627
Pt       1.40360635       4.05186441      24.58417386        2       0.00000000       0.00139027      -0.00313049       0.05156879
Pt       4.21082088       4.05186391      24.58417389        2       0.00000000      -0.00188538       0.03257433      -0.01069609
Pt       7.01803505       4.05186405      24.58417404        2       0.00000000      -0.00343105       0.00035103       0.05153683
Pt       2.80721273       6.48298348      24.58417381        2       0.00000000       0.00003630       0.00137413       0.05378504
Pt       5.61442805       6.48298330      24.58417394        2       0.00000000      -0.00117887      -0.00066956       0.05379079
Pt       8.42164222       6.48298341      24.58417373        2       0.00000000       0.00198482       0.00277976       0.05152408
Pt      -0.00000429      -0.00000450      26.91888522        1       0.00000000       0.00002897       0.00014746      -0.03534999
Pt       2.80647396       0.00005254      26.91776997        1       0.00000000      -0.00507296      -0.01180367      -0.00111512
Pt       5.61427952      -0.00224461      26.91811635        1       0.00000000       0.00374461      -0.00886910      -0.00139060
Pt       1.40175928       2.43233607      26.91812504        1       0.00000000      -0.00894761       0.00087346      -0.00165057
Pt       4.21081944       2.43111310      26.90409565        1       0.00000000      -0.00003071       0.00004363       0.00068870
Pt       7.01829823       2.43044241      26.91773728        1       0.00000000       0.01228912       0.00126084      -0.00135788
Pt       2.80768586       4.86286882      26.91772980        1       0.00000000      -0.00717646       0.01051936      -0.00105928
Pt       5.61642759       4.86326646      26.91814322        1       0.00000000       0.00517157       0.00800714      -0.00133471
Pt       8.42164603       4.86225045      26.91920986        1       0.00000000       0.00001628      -0.00019201      -0.03346850
O        4.21082080       2.43112006      30.19489613        0       0.50000000      -0.00002100       0.00001172       0.00711601
H        4.21081809       2.43111841      29.20273687        0       0.50000000      -0.00000105      -0.00000024       0.01269369
