38
Lattice="8.421641763931781 0.0 0.0 4.2108208819658905 7.293355709136913 0.0 0.0 0.0 46.87624170604845" Properties=species:S:1:pos:R:3:tags:I:1:initial_magmoms:R:1:forces:R:3 charge=0 spin=0 energy=-194.41437479550206 free_energy=-194.41437479550206 stress="0.010243498720228672 5.5719961977729326e-08 -1.1063908900155184e-08 5.5719961977729326e-08 0.010243513621389866 8.920824967617591e-09 -1.1063908900155184e-08 8.920824967617591e-09 -6.932819087523967e-05" pbc="T T T"
Pt      -0.00000001       0.00000015      19.95723445        4       0.00000000       0.00000294       0.00000013       0.00948589
Pt       2.80721394      -0.00000009      19.95723448        4       0.00000000      -0.00143157      -0.00042899       0.01196392
Pt       5.61442781      -0.00000017      19.95723450        4       0.00000000       0.00051604       0.00038821       0.01170173
Pt       1.40360720       2.43111836      19.95723436        4       0.00000000       0.00007481      -0.00063883       0.01172794
Pt       4.21082078       2.43111836      19.95723446        4       0.00000000       0.00000214       0.00000066       0.01166019
Pt       7.01803484       2.43111844      19.95723431        4       0.00000000       0.00108323      -0.00102986       0.01198152
Pt       2.80721414       4.86223727      19.95723413        4       0.00000000       0.00034473       0.00145755       0.01197637
Pt       5.61442797       4.86223736      19.95723433        4       0.00000000      -0.00059251       0.00025295       0.01170077
Pt       8.42164142       4.86223724      19.95723439        4       0.00000000       0.00000024      -0.00000319       0.01212535
Pt       1.40360727       0.81037261      22.29206790        3       0.00000000      -0.00120013      -0.00260820      -0.03410711
Pt       4.21082126       0.81037249      22.29206793        3       0.00000000      -0.00152601       0.00097841      -0.03877832
Pt       7.01803475       0.81037258      22.29206787        3       0.00000000       0.00286079       0.00026318      -0.03411299
Pt       2.80721449       3.24149123      22.29206778        3       0.00000000       0.00160798       0.00083287      -0.03884778
Pt       5.61442761       3.24149123      22.29206789        3       0.00000000      -0.00009402      -0.00179470      -0.03883190
Pt       8.42164155       3.24149130      22.29206812        3       0.00000000      -0.00114912       0.00398648      -0.03782810
Pt       4.21082090       5.67260997      22.29206743        3       0.00000000      -0.00166012       0.00235014      -0.03409224
Pt       7.01803489       5.67261038      22.29206778        3       0.00000000       0.00402027      -0.00099425      -0.03775166
Pt       9.82524818       5.67261058      22.29206804        3       0.00000000      -0.00285767      -0.00301839      -0.03777729
Pt      -0.00000057       1.62074568      24.58417368        2       0.00000000       0.00117288      -0.00065456       0.05386369
Pt       2.80721445       1.62074549      24.58417387        2       0.00000000      -0.02727894      -0.01795737      -0.01064979
Pt       5.61442780       1.62074538      24.58417368        2       0.00000000       0.02918778      -0.01465653      -0.01068049
Pt       1.40360635       4.05186441      24.58417386        2       0.00000000       0.00139181      -0.00313074       0.05156964
Pt       4.21082088       4.05186391      24.58417389        2       0.00000000      -0.00188608       0.03256822      -0.01069102
Pt       7.01803505       4.05186405      24.58417404        2       0.00000000      -0.00343130       0.00035143       0.05153534
Pt       2.80721273       6.48298348      24.58417381        2       0.00000000       0.00003450       0.00137544       0.05379161
Pt       5.61442805       6.48298330      24.58417394        2       0.00000000      -0.00117977      -0.00066894       0.05379459
Pt       8.42164222       6.48298341      24.58417373        2       0.00000000       0.00198676       0.00278343       0.05152227
Pt      -0.00000394      -0.00000314      26.91888410        1       0.00000000       0.00002092       0.00014575      -0.03534331
Pt       2.80647434       0.00005393      26.91776976        1       0.00000000      -0.00507849      -0.01180697      -0.00111369
Pt       5.61427951      -0.00224249      26.91811715        1       0.00000000       0.00374727      -0.00888073      -0.00139779
Pt       1.40176049       2.43233634      26.91812574        1       0.00000000      -0.00895663       0.00087853      -0.00165197
Pt       4.21081932       2.43111304      26.90409990        1       0.00000000      -0.00003147       0.00004576       0.00068200
Pt       7.01829722       2.43044291      26.91773744        1       0.00000000       0.01229544       0.00126298      -0.00135858
Pt       2.80768633       4.86286816      26.91772982        1       0.00000000      -0.00718277       0.01052547      -0.00106024
Pt       5.61642589       4.86326551      26.91814165        1       0.00000000       0.00517617       0.00801772      -0.00133564
Pt       8.42164624       4.86225206      26.91920777        1       0.00000000      -0.00000060      -0.00018537      -0.03346543
O        4.21081822       2.43111495      30.19492166        0       0.50000000       0.00001047      -0.00001102       0.00724086
H        4.21082033       2.43111747      29.20276571        0       0.50000000       0.00000011       0.00000355       0.01255162
