38
Lattice="8.421641763931781 0.0 0.0 4.2108208819658905 7.293355709136913 0.0 0.0 0.0 46.87624170604845" Properties=species:S:1:pos:R:3:tags:I:1:initial_magmoms:R:1:forces:R:3 charge=0 spin=0 energy=-194.4148020415958 free_energy=-194.4148020415958 stress="0.01023389957845211 3.048959840157295e-08 2.1554617646302177e-08 3.048959840157295e-08 0.010233900509774685 5.388545218920626e-07 2.1554617646302177e-08 5.388545218920626e-07 -6.94598420523107e-05" pbc="T T T"
Pt      -0.00000001       0.00000015      19.95723445        4       0.00000000       0.00000309       0.00000646       0.00966730
Pt       2.80721394      -0.00000009      19.95723448        4       0.00000000      -0.00137628      -0.00031077       0.01199089
Pt       5.61442781      -0.00000017      19.95723450        4       0.00000000       0.00052916       0.00033579       0.01173216
Pt       1.40360720       2.43111836      19.95723436        4       0.00000000       0.00002016      -0.00061570       0.01175730
Pt       4.21082078       2.43111836      19.95723446        4       0.00000000       0.00000200      -0.00000445       0.01178693
Pt       7.01803484       2.43111844      19.95723431        4       0.00000000       0.00095160      -0.00103019       0.01200609
Pt       2.80721414       4.86223727      19.95723413        4       0.00000000       0.00042387       0.00133915       0.01200569
Pt       5.61442797       4.86223736      19.95723433        4       0.00000000      -0.00055336       0.00028262       0.01172929
Pt       8.42164142       4.86223724      19.95723439        4       0.00000000       0.00000038      -0.00000376       0.01205826
Pt       1.40360727       0.81037261      22.29206790        3       0.00000000      -0.00148487      -0.00276035      -0.03525266
Pt       4.21082126       0.81037249      22.29206793        3       0.00000000      -0.00143511       0.00098167      -0.03810078
Pt       7.01803475       0.81037258      22.29206787        3       0.00000000       0.00313541       0.00009500      -0.03524672
Pt       2.80721449       3.24149123      22.29206778        3       0.00000000       0.00159371       0.00072835      -0.03810797
Pt       5.61442761       3.24149123      22.29206789        3       0.00000000      -0.00016890      -0.00174063      -0.03809154
Pt       8.42164155       3.24149130      22.29206812        3       0.00000000      -0.00114014       0.00365368      -0.03777251
Pt       4.21082090       5.67260997      22.29206743        3       0.00000000      -0.00165377       0.00268808      -0.03521922
Pt       7.01803489       5.67261038      22.29206778        3       0.00000000       0.00370463      -0.00081314      -0.03776241
Pt       9.82524818       5.67261058      22.29206804        3       0.00000000      -0.00255572      -0.00282213      -0.03778094
Pt      -0.00000057       1.62074568      24.58417368        2       0.00000000       0.00134518       0.00282931       0.04346886
Pt       2.80721445       1.62074549      24.58417387        2       0.00000000      -0.02142616      -0.01344191      -0.00285124
Pt       5.61442780       1.62074538      24.58417368        2       0.00000000       0.02255973      -0.01151547      -0.00283601
Pt       1.40360635       4.05186441      24.58417386        2       0.00000000       0.00462848      -0.00413828       0.04309039
Pt       4.21082088       4.05186391      24.58417389        2       0.00000000      -0.00107725       0.02521207      -0.00298956
Pt       7.01803505       4.05186405      24.58417404        2       0.00000000      -0.00577524      -0.00221013       0.04309130
Pt       2.80721273       6.48298348      24.58417381        2       0.00000000      -0.00304610      -0.00023629       0.04316950
Pt       5.61442805       6.48298330      24.58417394        2       0.00000000       0.00168997      -0.00263791       0.04317978
Pt       8.42164222       6.48298341      24.58417373        2       0.00000000       0.00110340       0.00615624       0.04301510
Pt      -0.00000542      -0.00010321      26.91445527        1       0.00000000       0.00002625       0.00044030      -0.01243150
Pt       2.80539546       0.00020351      26.91686684        1       0.00000000       0.00237308      -0.00490276       0.00272902
Pt       5.61380188      -0.00366770      26.91740116        1       0.00000000       0.00211557       0.00400926       0.00151872
Pt       1.40061582       2.43355672      26.91752638        1       0.00000000       0.00363773      -0.00456680       0.00083573
Pt       4.21082367       2.43111135      26.90853384        1       0.00000000      -0.00004738       0.00002338      -0.01230481
Pt       7.01884803       2.42954086      26.91698595        1       0.00000000       0.00200050       0.00376472       0.00190835
Pt       2.80819330       4.86362194      26.91683681        1       0.00000000      -0.00423153       0.00108642       0.00274338
Pt       5.61806245       4.86346313      26.91743387        1       0.00000000      -0.00588265       0.00060515       0.00157150
Pt       8.42164446       4.86235489      26.91572576        1       0.00000000       0.00003703      -0.00050959      -0.01401336
O        4.21083470       2.43112130      30.21788173        0       0.50000000      -0.00001498       0.00002779      -0.04236850
H        4.21081783       2.43111872      29.22504301        0       0.50000000      -0.00001149      -0.00000522       0.04807425
