38
Lattice="8.421641763931781 0.0 0.0 4.2108208819658905 7.293355709136913 0.0 0.0 0.0 46.87624170604845" Properties=species:S:1:pos:R:3:tags:I:1:initial_magmoms:R:1:forces:R:3 charge=0 spin=0 energy=-194.4146799712833 free_energy=-194.4146799712833 stress="0.010195552371442318 2.0173429149394906e-08 6.78978961943244e-09 2.0173429149394906e-08 0.010195470415055752 -4.3466132915170874e-09 6.78978961943244e-09 -4.3466132915170874e-09 -0.00015388056635856628" pbc="T T T"
Pt      -0.00000001       0.00000015      19.95723445        4       0.00000000       0.00000310      -0.00000593       0.00971566
Pt       2.80721394      -0.00000009      19.95723448        4       0.00000000      -0.00135378      -0.00031549       0.01206191
Pt       5.61442781      -0.00000017      19.95723450        4       0.00000000       0.00042289       0.00035173       0.01177919
Pt       1.40360720       2.43111836      19.95723436        4       0.00000000       0.00009307      -0.00054837       0.01180612
Pt       4.21082078       2.43111836      19.95723446        4       0.00000000       0.00000295       0.00000304       0.01154019
Pt       7.01803484       2.43111844      19.95723431        4       0.00000000       0.00094618      -0.00102708       0.01208084
Pt       2.80721414       4.86223727      19.95723413        4       0.00000000       0.00040360       0.00134178       0.01206894
Pt       5.61442797       4.86223736      19.95723433        4       0.00000000      -0.00051724       0.00019760       0.01178042
Pt       8.42164142       4.86223724      19.95723439        4       0.00000000       0.00000002       0.00000018       0.01174365
Pt       1.40360727       0.81037261      22.29206790        3       0.00000000      -0.00140656      -0.00261634      -0.03534408
Pt       4.21082126       0.81037249      22.29206793        3       0.00000000      -0.00150184       0.00105123      -0.03792978
Pt       7.01803475       0.81037258      22.29206787        3       0.00000000       0.00297321       0.00009204      -0.03535857
Pt       2.80721449       3.24149123      22.29206778        3       0.00000000       0.00163116       0.00079084      -0.03805624
Pt       5.61442761       3.24149123      22.29206789        3       0.00000000      -0.00014399      -0.00179460      -0.03803794
Pt       8.42164155       3.24149130      22.29206812        3       0.00000000      -0.00088450       0.00345610      -0.03772014
Pt       4.21082090       5.67260997      22.29206743        3       0.00000000      -0.00156864       0.00252608      -0.03532966
Pt       7.01803489       5.67261038      22.29206778        3       0.00000000       0.00344703      -0.00096992      -0.03758134
Pt       9.82524818       5.67261058      22.29206804        3       0.00000000      -0.00254600      -0.00253685      -0.03761119
Pt      -0.00000057       1.62074568      24.58417368        2       0.00000000       0.00125328       0.01119964       0.02969492
Pt       2.80721445       1.62074549      24.58417387        2       0.00000000      -0.02647988      -0.01784423      -0.01251084
Pt       5.61442780       1.62074538      24.58417368        2       0.00000000       0.02858741      -0.01422959      -0.01252229
Pt       1.40360635       4.05186441      24.58417386        2       0.00000000       0.01041772      -0.00814958       0.03226436
Pt       4.21082088       4.05186391      24.58417389        2       0.00000000      -0.00207430       0.03185436      -0.01247939
Pt       7.01803505       4.05186405      24.58417404        2       0.00000000      -0.01239413      -0.00481259       0.03224474
Pt       2.80721273       6.48298348      24.58417381        2       0.00000000      -0.01026062      -0.00444983       0.02957375
Pt       5.61442805       6.48298330      24.58417394        2       0.00000000       0.00903538      -0.00662211       0.02955136
Pt       8.42164222       6.48298341      24.58417373        2       0.00000000       0.00191381       0.01305710       0.03208318
Pt      -0.00000059       0.00003071      26.90630296        1       0.00000000      -0.00002284       0.00026525       0.03121885
Pt       2.80587863      -0.00121798      26.91706120        1       0.00000000       0.00248581       0.00197977       0.00126925
Pt       5.61452107      -0.00272242      26.91756238        1       0.00000000      -0.00255038       0.00189678       0.00025407
Pt       1.40137491       2.43228815      26.91750874        1       0.00000000       0.00271495       0.00135525       0.00014599
Pt       4.21082085       2.43112150      26.90207300        1       0.00000000       0.00000147      -0.00000777       0.03030316
Pt       7.01957010       2.43048842      26.91696693        1       0.00000000      -0.00274590       0.00128960       0.00114739
Pt       2.80701393       4.86408491      26.91704578        1       0.00000000       0.00027620      -0.00323512       0.00121755
Pt       5.61656627       4.86379778      26.91760378        1       0.00000000      -0.00018577      -0.00327953       0.00024754
Pt       8.42164051       4.86220812      26.90866348        1       0.00000000       0.00003495      -0.00026798       0.02218762
O        4.21082395       2.43111374      30.23259472        0       0.50000000      -0.00000268      -0.00000759      -0.00569769
H        4.21081727       2.43112436      29.24132454        0       0.50000000      -0.00000497       0.00001190      -0.00180135
