38
Lattice="8.421641763931781 0.0 0.0 4.2108208819658905 7.293355709136913 0.0 0.0 0.0 46.87624170604845" Properties=species:S:1:pos:R:3:tags:I:1:initial_magmoms:R:1:forces:R:3 charge=0 spin=0 energy=-194.41489931637608 free_energy=-194.41489931637608 stress="0.010227127932012081 8.17154344190385e-08 -4.606407699725423e-08 8.17154344190385e-08 0.010227076709270477 1.9895582070716955e-08 -4.606407699725423e-08 1.9895582070716955e-08 -0.00011160984286107123" pbc="T T T"
Pt      -0.00000001       0.00000015      19.95723445        4       0.00000000       0.00000818      -0.00000615       0.00977262
Pt       2.80721394      -0.00000009      19.95723448        4       0.00000000      -0.00137800      -0.00031771       0.01202329
Pt       5.61442781      -0.00000017      19.95723450        4       0.00000000       0.00043763       0.00037025       0.01174624
Pt       1.40360720       2.43111836      19.95723436        4       0.00000000       0.00010340      -0.00057935       0.01177257
Pt       4.21082078       2.43111836      19.95723446        4       0.00000000      -0.00000181       0.00000131       0.01172982
Pt       7.01803484       2.43111844      19.95723431        4       0.00000000       0.00096110      -0.00104718       0.01204581
Pt       2.80721414       4.86223727      19.95723413        4       0.00000000       0.00041041       0.00136292       0.01202938
Pt       5.61442797       4.86223736      19.95723433        4       0.00000000      -0.00054387       0.00020772       0.01174651
Pt       8.42164142       4.86223724      19.95723439        4       0.00000000      -0.00000104       0.00000367       0.01195968
Pt       1.40360727       0.81037261      22.29206790        3       0.00000000      -0.00146520      -0.00270015      -0.03534636
Pt       4.21082126       0.81037249      22.29206793        3       0.00000000      -0.00156059       0.00102495      -0.03789369
Pt       7.01803475       0.81037258      22.29206787        3       0.00000000       0.00308057       0.00008765      -0.03543482
Pt       2.80721449       3.24149123      22.29206778        3       0.00000000       0.00162308       0.00087031      -0.03804665
Pt       5.61442761       3.24149123      22.29206789        3       0.00000000      -0.00008863      -0.00182970      -0.03802716
Pt       8.42164155       3.24149130      22.29206812        3       0.00000000      -0.00095061       0.00354997      -0.03788792
Pt       4.21082090       5.67260997      22.29206743        3       0.00000000      -0.00163554       0.00261217      -0.03537651
Pt       7.01803489       5.67261038      22.29206778        3       0.00000000       0.00356299      -0.00097454      -0.03771446
Pt       9.82524818       5.67261058      22.29206804        3       0.00000000      -0.00259779      -0.00263469      -0.03777352
Pt      -0.00000057       1.62074568      24.58417368        2       0.00000000       0.00103626       0.00572504       0.03953327
Pt       2.80721445       1.62074549      24.58417387        2       0.00000000      -0.02150904      -0.01515299      -0.00397503
Pt       5.61442780       1.62074538      24.58417368        2       0.00000000       0.02386931      -0.01136015      -0.00400409
Pt       1.40360635       4.05186441      24.58417386        2       0.00000000       0.00649059      -0.00572376       0.04052329
Pt       4.21082088       4.05186391      24.58417389        2       0.00000000      -0.00215236       0.02624506      -0.00391481
Pt       7.01803505       4.05186405      24.58417404        2       0.00000000      -0.00832883      -0.00264723       0.04075671
Pt       2.80721273       6.48298348      24.58417381        2       0.00000000      -0.00537952      -0.00180534       0.03917745
Pt       5.61442805       6.48298330      24.58417394        2       0.00000000       0.00438552      -0.00370366       0.03923958
Pt       8.42164222       6.48298341      24.58417373        2       0.00000000       0.00174298       0.00842419       0.04024441
Pt       0.00001966       0.00001704      26.91182792        1       0.00000000       0.00001402       0.00051965       0.00181611
Pt       2.80603391      -0.00104884      26.91725028        1       0.00000000       0.00112876       0.00056331       0.00085600
Pt       5.61447780      -0.00272144      26.91752333        1       0.00000000      -0.00149277       0.00134206       0.00095239
Pt       1.40151097       2.43228528      26.91746307        1       0.00000000       0.00102697       0.00108600       0.00075191
Pt       4.21081445       2.43110684      26.90733160        1       0.00000000       0.00029944       0.00012233      -0.00256823
Pt       7.01933741       2.43048306      26.91716732        1       0.00000000      -0.00069183       0.00117246       0.00052294
Pt       2.80712474       4.86392691      26.91722099        1       0.00000000      -0.00035815      -0.00175902       0.00083579
Pt       5.61651117       4.86380006      26.91758926        1       0.00000000       0.00046308      -0.00240754       0.00075445
Pt       8.42169355       4.86223450      26.91351532        1       0.00000000      -0.00026410      -0.00061971      -0.00331384
O        4.21133991       2.43112556      30.22601336        0       0.50000000       0.00090468      -0.00000319       0.03859854
H        4.21005019       2.43109819      29.23545247        0       0.50000000      -0.00114984      -0.00001886      -0.03811134
