38
Lattice="8.421641763931781 0.0 0.0 4.2108208819658905 7.293355709136913 0.0 0.0 0.0 46.87624170604845" Properties=species:S:1:pos:R:3:tags:I:1:initial_magmoms:R:1:forces:R:3 charge=0 spin=0 energy=-194.4148134856876 free_energy=-194.4148134856876 stress="0.010233861394226551 4.10250926563549e-08 -3.202251619427443e-08 4.10250926563549e-08 0.010233834385871887 5.836715217810706e-07 -3.202251619427443e-08 5.836715217810706e-07 -6.959134771022946e-05" pbc="T T T"
Pt      -0.00000001       0.00000015      19.95723445        4       0.00000000       0.00000261       0.00000653       0.00966632
Pt       2.80721394      -0.00000009      19.95723448        4       0.00000000      -0.00137631      -0.00031116       0.01199085
Pt       5.61442781      -0.00000017      19.95723450        4       0.00000000       0.00052918       0.00033567       0.01173201
Pt       1.40360720       2.43111836      19.95723436        4       0.00000000       0.00001975      -0.00061552       0.01175739
Pt       4.21082078       2.43111836      19.95723446        4       0.00000000       0.00000156      -0.00000438       0.01178682
Pt       7.01803484       2.43111844      19.95723431        4       0.00000000       0.00095161      -0.00103040       0.01200607
Pt       2.80721414       4.86223727      19.95723413        4       0.00000000       0.00042337       0.00133938       0.01200569
Pt       5.61442797       4.86223736      19.95723433        4       0.00000000      -0.00055335       0.00028291       0.01172955
Pt       8.42164142       4.86223724      19.95723439        4       0.00000000       0.00000010      -0.00000405       0.01205824
Pt       1.40360727       0.81037261      22.29206790        3       0.00000000      -0.00148473      -0.00276117      -0.03525100
Pt       4.21082126       0.81037249      22.29206793        3       0.00000000      -0.00143556       0.00098111      -0.03810197
Pt       7.01803475       0.81037258      22.29206787        3       0.00000000       0.00313529       0.00009516      -0.03524434
Pt       2.80721449       3.24149123      22.29206778        3       0.00000000       0.00159312       0.00072833      -0.03810801
Pt       5.61442761       3.24149123      22.29206789        3       0.00000000      -0.00016991      -0.00174111      -0.03809221
Pt       8.42164155       3.24149130      22.29206812        3       0.00000000      -0.00114077       0.00365308      -0.03777251
Pt       4.21082090       5.67260997      22.29206743        3       0.00000000      -0.00165426       0.00268696      -0.03521690
Pt       7.01803489       5.67261038      22.29206778        3       0.00000000       0.00370506      -0.00081424      -0.03776218
Pt       9.82524818       5.67261058      22.29206804        3       0.00000000      -0.00255697      -0.00282327      -0.03778262
Pt      -0.00000057       1.62074568      24.58417368        2       0.00000000       0.00134702       0.00283222       0.04346957
Pt       2.80721445       1.62074549      24.58417387        2       0.00000000      -0.02143999      -0.01344810      -0.00286704
Pt       5.61442780       1.62074538      24.58417368        2       0.00000000       0.02257047      -0.01152019      -0.00285533
Pt       1.40360635       4.05186441      24.58417386        2       0.00000000       0.00463308      -0.00414114       0.04309419
Pt       4.21082088       4.05186391      24.58417389        2       0.00000000      -0.00107531       0.02522245      -0.00300646
Pt       7.01803505       4.05186405      24.58417404        2       0.00000000      -0.00577193      -0.00220699       0.04309340
Pt       2.80721273       6.48298348      24.58417381        2       0.00000000      -0.00304110      -0.00023429       0.04317284
Pt       5.61442805       6.48298330      24.58417394        2       0.00000000       0.00168841      -0.00263503       0.04318118
Pt       8.42164222       6.48298341      24.58417373        2       0.00000000       0.00110407       0.00615647       0.04301276
Pt      -0.00000355      -0.00010042      26.91445641        1       0.00000000       0.00000595       0.00045401      -0.01245851
Pt       2.80539735       0.00020223      26.91686666        1       0.00000000       0.00236723      -0.00489886       0.00273089
Pt       5.61380426      -0.00366641      26.91740072        1       0.00000000       0.00211847       0.00400448       0.00151815
Pt       1.40061648       2.43355690      26.91752818        1       0.00000000       0.00364076      -0.00456122       0.00082987
Pt       4.21082365       2.43111180      26.90852379        1       0.00000000      -0.00004282       0.00002646      -0.01228434
Pt       7.01884712       2.42954355      26.91698577        1       0.00000000       0.00201597       0.00376384       0.00190593
Pt       2.80819809       4.86362322      26.91683838        1       0.00000000      -0.00424593       0.00108911       0.00274503
Pt       5.61806492       4.86346430      26.91743410        1       0.00000000      -0.00588280       0.00060936       0.00156844
Pt       8.42165057       4.86235502      26.91572611        1       0.00000000      -0.00000655      -0.00050330      -0.01401731
O        4.21080405       2.43110942      30.21782608        0       0.50000000       0.00001210      -0.00002199      -0.04221396
H        4.21082639       2.43112182      29.22498808        0       0.50000000       0.00001342       0.00000855       0.04797934
