38
Lattice="8.421641763931781 0.0 0.0 4.2108208819658905 7.293355709136913 0.0 0.0 0.0 46.87624170604845" Properties=species:S:1:pos:R:3:tags:I:1:initial_magmoms:R:1:forces:R:3 charge=0 spin=0 energy=-194.41481157833897 free_energy=-194.41481157833897 stress="0.010233859531581402 2.6327228397349245e-08 2.2355028939102795e-09 2.6327228397349245e-08 0.01023387536406517 5.593915943791217e-07 2.2355028939102795e-09 5.593915943791217e-07 -6.957251753192395e-05" pbc="T T T"
Pt      -0.00000001       0.00000015      19.95723445        4       0.00000000       0.00000272       0.00000607       0.00966709
Pt       2.80721394      -0.00000009      19.95723448        4       0.00000000      -0.00137610      -0.00031105       0.01199108
Pt       5.61442781      -0.00000017      19.95723450        4       0.00000000       0.00052929       0.00033580       0.01173216
Pt       1.40360720       2.43111836      19.95723436        4       0.00000000       0.00002003      -0.00061556       0.01175781
Pt       4.21082078       2.43111836      19.95723446        4       0.00000000       0.00000165      -0.00000431       0.01178686
Pt       7.01803484       2.43111844      19.95723431        4       0.00000000       0.00095142      -0.00103021       0.01200620
Pt       2.80721414       4.86223727      19.95723413        4       0.00000000       0.00042365       0.00133934       0.01200593
Pt       5.61442797       4.86223736      19.95723433        4       0.00000000      -0.00055356       0.00028256       0.01172980
Pt       8.42164142       4.86223724      19.95723439        4       0.00000000       0.00000018      -0.00000394       0.01205817
Pt       1.40360727       0.81037261      22.29206790        3       0.00000000      -0.00148489      -0.00276028      -0.03525131
Pt       4.21082126       0.81037249      22.29206793        3       0.00000000      -0.00143617       0.00098046      -0.03810166
Pt       7.01803475       0.81037258      22.29206787        3       0.00000000       0.00313473       0.00009428      -0.03524418
Pt       2.80721449       3.24149123      22.29206778        3       0.00000000       0.00159229       0.00072768      -0.03810825
Pt       5.61442761       3.24149123      22.29206789        3       0.00000000      -0.00016986      -0.00174089      -0.03809371
Pt       8.42164155       3.24149130      22.29206812        3       0.00000000      -0.00114077       0.00365286      -0.03777256
Pt       4.21082090       5.67260997      22.29206743        3       0.00000000      -0.00165475       0.00268760      -0.03521830
Pt       7.01803489       5.67261038      22.29206778        3       0.00000000       0.00370472      -0.00081287      -0.03776142
Pt       9.82524818       5.67261058      22.29206804        3       0.00000000      -0.00255745      -0.00282276      -0.03778264
Pt      -0.00000057       1.62074568      24.58417368        2       0.00000000       0.00135093       0.00283294       0.04346728
Pt       2.80721445       1.62074549      24.58417387        2       0.00000000      -0.02143727      -0.01344655      -0.00285231
Pt       5.61442780       1.62074538      24.58417368        2       0.00000000       0.02256469      -0.01151954      -0.00285000
Pt       1.40360635       4.05186441      24.58417386        2       0.00000000       0.00463224      -0.00414361       0.04309198
Pt       4.21082088       4.05186391      24.58417389        2       0.00000000      -0.00107270       0.02521924      -0.00300570
Pt       7.01803505       4.05186405      24.58417404        2       0.00000000      -0.00577157      -0.00220591       0.04308967
Pt       2.80721273       6.48298348      24.58417381        2       0.00000000      -0.00304360      -0.00023192       0.04316601
Pt       5.61442805       6.48298330      24.58417394        2       0.00000000       0.00169255      -0.00263471       0.04317873
Pt       8.42164222       6.48298341      24.58417373        2       0.00000000       0.00110355       0.00615725       0.04301619
Pt      -0.00000247      -0.00010045      26.91445627        1       0.00000000       0.00001088       0.00043373      -0.01243953
Pt       2.80539746       0.00020181      26.91686785        1       0.00000000       0.00237364      -0.00488886       0.00272241
Pt       5.61380398      -0.00366783      26.91740028        1       0.00000000       0.00211654       0.00401348       0.00151700
Pt       1.40061560       2.43355715      26.91753002        1       0.00000000       0.00365379      -0.00456497       0.00082129
Pt       4.21082357       2.43111200      26.90852786        1       0.00000000      -0.00004177       0.00002064      -0.01229980
Pt       7.01884765       2.42954297      26.91698546        1       0.00000000       0.00200961       0.00376171       0.00191603
Pt       2.80819856       4.86362414      26.91683669        1       0.00000000      -0.00424392       0.00107898       0.00275387
Pt       5.61806679       4.86346533      26.91743420        1       0.00000000      -0.00589127       0.00059806       0.00157078
Pt       8.42165122       4.86235373      26.91572657        1       0.00000000       0.00001083      -0.00049224      -0.01401712
O        4.21080419       2.43111390      30.21784099        0       0.50000000      -0.00001662       0.00000562      -0.04223144
H        4.21082203       2.43111884      29.22500139        0       0.50000000       0.00001239       0.00000165       0.04798392
