38
Lattice="8.421641763931781 0.0 0.0 4.2108208819658905 7.293355709136913 0.0 0.0 0.0 46.87624170604845" Properties=species:S:1:pos:R:3:tags:I:1:initial_magmoms:R:1:forces:R:3 charge=0 spin=0 energy=-194.41438051754795 free_energy=-194.41438051754795 stress="0.010243464261293411 6.128689733486681e-08 -1.4351487109820482e-08 6.128689733486681e-08 0.01024347823113203 1.012819073054061e-08 -1.4351487109820482e-08 1.012819073054061e-08 -6.930861854925752e-05" pbc="T T T"
Pt      -0.00000001       0.00000015      19.95723445        4       0.00000000       0.00000311       0.00000003       0.00948524
Pt       2.80721394      -0.00000009      19.95723448        4       0.00000000      -0.00143180      -0.00042900       0.01196390
Pt       5.61442781      -0.00000017      19.95723450        4       0.00000000       0.00051604       0.00038844       0.01170177
Pt       1.40360720       2.43111836      19.95723436        4       0.00000000       0.00007484      -0.00063905       0.01172770
Pt       4.21082078       2.43111836      19.95723446        4       0.00000000       0.00000234       0.00000102       0.01166027
Pt       7.01803484       2.43111844      19.95723431        4       0.00000000       0.00108357      -0.00102996       0.01198141
Pt       2.80721414       4.86223727      19.95723413        4       0.00000000       0.00034473       0.00145791       0.01197668
Pt       5.61442797       4.86223736      19.95723433        4       0.00000000      -0.00059283       0.00025314       0.01170063
Pt       8.42164142       4.86223724      19.95723439        4       0.00000000       0.00000038      -0.00000319       0.01212524
Pt       1.40360727       0.81037261      22.29206790        3       0.00000000      -0.00120004      -0.00260821      -0.03410542
Pt       4.21082126       0.81037249      22.29206793        3       0.00000000      -0.00152587       0.00097860      -0.03878020
Pt       7.01803475       0.81037258      22.29206787        3       0.00000000       0.00286056       0.00026359      -0.03411192
Pt       2.80721449       3.24149123      22.29206778        3       0.00000000       0.00160752       0.00083331      -0.03884962
Pt       5.61442761       3.24149123      22.29206789        3       0.00000000      -0.00009445      -0.00179495      -0.03883285
Pt       8.42164155       3.24149130      22.29206812        3       0.00000000      -0.00115029       0.00398738      -0.03782779
Pt       4.21082090       5.67260997      22.29206743        3       0.00000000      -0.00166028       0.00235054      -0.03408951
Pt       7.01803489       5.67261038      22.29206778        3       0.00000000       0.00402078      -0.00099453      -0.03775136
Pt       9.82524818       5.67261058      22.29206804        3       0.00000000      -0.00285819      -0.00301877      -0.03777738
Pt      -0.00000057       1.62074568      24.58417368        2       0.00000000       0.00117267      -0.00066040       0.05386629
Pt       2.80721445       1.62074549      24.58417387        2       0.00000000      -0.02728130      -0.01795972      -0.01065069
Pt       5.61442780       1.62074538      24.58417368        2       0.00000000       0.02919046      -0.01465648      -0.01068249
Pt       1.40360635       4.05186441      24.58417386        2       0.00000000       0.00139099      -0.00313008       0.05157140
Pt       4.21082088       4.05186391      24.58417389        2       0.00000000      -0.00188555       0.03257222      -0.01069168
Pt       7.01803505       4.05186405      24.58417404        2       0.00000000      -0.00343031       0.00035178       0.05153780
Pt       2.80721273       6.48298348      24.58417381        2       0.00000000       0.00004071       0.00137595       0.05378773
Pt       5.61442805       6.48298330      24.58417394        2       0.00000000      -0.00118466      -0.00066656       0.05379517
Pt       8.42164222       6.48298341      24.58417373        2       0.00000000       0.00198538       0.00277895       0.05152460
Pt      -0.00000454      -0.00000433      26.91888787        1       0.00000000       0.00002710       0.00015315      -0.03536831
Pt       2.80647369       0.00005169      26.91777012        1       0.00000000      -0.00507315      -0.01179420      -0.00111439
Pt       5.61427965      -0.00224525      26.91811652        1       0.00000000       0.00373703      -0.00886657      -0.00138952
Pt       1.40175829       2.43233619      26.91812566        1       0.00000000      -0.00894212       0.00087214      -0.00165050
Pt       4.21081934       2.43111342      26.90409876        1       0.00000000      -0.00003259       0.00004087       0.00066471
Pt       7.01829878       2.43044262      26.91773796        1       0.00000000       0.01228630       0.00126037      -0.00135856
Pt       2.80768542       4.86286946      26.91772983        1       0.00000000      -0.00717459       0.01051386      -0.00105755
Pt       5.61642812       4.86326719      26.91814233        1       0.00000000       0.00516432       0.00800401      -0.00133464
Pt       8.42164653       4.86225008      26.91921257        1       0.00000000      -0.00000220      -0.00017600      -0.03349066
O        4.21082021       2.43112142      30.19487717        0       0.50000000       0.00001363      -0.00000732       0.00708327
H        4.21081901       2.43111657      29.20271755        0       0.50000000      -0.00000221      -0.00000216       0.01276078
