38
Lattice="8.421641763931781 0.0 0.0 4.2108208819658905 7.293355709136913 0.0 0.0 0.0 46.87624170604845" Properties=species:S:1:pos:R:3:tags:I:1:initial_magmoms:R:1:forces:R:3 charge=0 spin=0 energy=-194.4146914153751 free_energy=-194.4146914153751 stress="0.01019551232457161 3.8865426432721506e-08 2.3856296493818263e-08 3.8865426432721506e-08 0.010195475071668625 9.948254664493561e-09 2.3856296493818263e-08 9.948254664493561e-09 -0.00015397093375213444" pbc="T T T"
Pt      -0.00000001       0.00000015      19.95723445        4       0.00000000       0.00000320      -0.00000582       0.00971571
Pt       2.80721394      -0.00000009      19.95723448        4       0.00000000      -0.00135409      -0.00031549       0.01206184
Pt       5.61442781      -0.00000017      19.95723450        4       0.00000000       0.00042319       0.00035186       0.01177919
Pt       1.40360720       2.43111836      19.95723436        4       0.00000000       0.00009289      -0.00054851       0.01180646
Pt       4.21082078       2.43111836      19.95723446        4       0.00000000       0.00000286       0.00000325       0.01154047
Pt       7.01803484       2.43111844      19.95723431        4       0.00000000       0.00094646      -0.00102727       0.01208101
Pt       2.80721414       4.86223727      19.95723413        4       0.00000000       0.00040362       0.00134183       0.01206886
Pt       5.61442797       4.86223736      19.95723433        4       0.00000000      -0.00051726       0.00019760       0.01178029
Pt       8.42164142       4.86223724      19.95723439        4       0.00000000       0.00000004       0.00000008       0.01174331
Pt       1.40360727       0.81037261      22.29206790        3       0.00000000      -0.00140673      -0.00261569      -0.03534311
Pt       4.21082126       0.81037249      22.29206793        3       0.00000000      -0.00150190       0.00105166      -0.03793114
Pt       7.01803475       0.81037258      22.29206787        3       0.00000000       0.00297315       0.00009284      -0.03535585
Pt       2.80721449       3.24149123      22.29206778        3       0.00000000       0.00163102       0.00079098      -0.03805719
Pt       5.61442761       3.24149123      22.29206789        3       0.00000000      -0.00014386      -0.00179506      -0.03803929
Pt       8.42164155       3.24149130      22.29206812        3       0.00000000      -0.00088522       0.00345597      -0.03772087
Pt       4.21082090       5.67260997      22.29206743        3       0.00000000      -0.00156917       0.00252612      -0.03533016
Pt       7.01803489       5.67261038      22.29206778        3       0.00000000       0.00344733      -0.00097030      -0.03758100
Pt       9.82524818       5.67261058      22.29206804        3       0.00000000      -0.00254622      -0.00253711      -0.03761204
Pt      -0.00000057       1.62074568      24.58417368        2       0.00000000       0.00125206       0.01119653       0.02969179
Pt       2.80721445       1.62074549      24.58417387        2       0.00000000      -0.02647986      -0.01784542      -0.01250540
Pt       5.61442780       1.62074538      24.58417368        2       0.00000000       0.02858698      -0.01422857      -0.01251599
Pt       1.40360635       4.05186441      24.58417386        2       0.00000000       0.01041927      -0.00814911       0.03226414
Pt       4.21082088       4.05186391      24.58417389        2       0.00000000      -0.00207412       0.03185473      -0.01247544
Pt       7.01803505       4.05186405      24.58417404        2       0.00000000      -0.01239266      -0.00481182       0.03224573
Pt       2.80721273       6.48298348      24.58417381        2       0.00000000      -0.01025985      -0.00444847       0.02957056
Pt       5.61442805       6.48298330      24.58417394        2       0.00000000       0.00903458      -0.00662160       0.02954414
Pt       8.42164222       6.48298341      24.58417373        2       0.00000000       0.00191424       0.01305711       0.03208199
Pt       0.00000063       0.00002996      26.90630400        1       0.00000000      -0.00001215       0.00025950       0.03121533
Pt       2.80587812      -0.00122081      26.91706127        1       0.00000000       0.00249794       0.00200286       0.00127073
Pt       5.61452230      -0.00272417      26.91756320        1       0.00000000      -0.00255339       0.00191327       0.00025462
Pt       1.40137277       2.43228809      26.91750865        1       0.00000000       0.00273861       0.00135597       0.00014538
Pt       4.21082085       2.43112174      26.90207327        1       0.00000000      -0.00000166      -0.00000837       0.03028519
Pt       7.01957244       2.43048865      26.91696719        1       0.00000000      -0.00276315       0.00128616       0.00114726
Pt       2.80701307       4.86408689      26.91704583        1       0.00000000       0.00028827      -0.00325487       0.00121789
Pt       5.61656852       4.86379931      26.91760402        1       0.00000000      -0.00019871      -0.00329821       0.00024915
Pt       8.42164271       4.86220741      26.90866381        1       0.00000000       0.00002562      -0.00025024       0.02217443
O        4.21081794       2.43111578      30.23258103        0       0.50000000      -0.00002125      -0.00001888      -0.00550618
H        4.21081685       2.43112485      29.24131355        0       0.50000000       0.00000006       0.00001232      -0.00196183
