38
Lattice="8.421641763931781 0.0 0.0 4.2108208819658905 7.293355709136913 0.0 0.0 0.0 46.87624170604845" Properties=species:S:1:pos:R:3:tags:I:1:initial_magmoms:R:1:forces:R:3 charge=0 spin=0 energy=-194.41481539303624 free_energy=-194.41481539303624 stress="0.010233861394226551 1.0621567625435091e-08 -3.2492510904091887e-09 1.0621567625435091e-08 0.010233907029032707 5.814508199364354e-07 -3.2492510904091887e-09 5.814508199364354e-07 -6.948385271243751e-05" pbc="T T T"
Pt      -0.00000001       0.00000015      19.95723445        4       0.00000000       0.00000253       0.00000592       0.00966696
Pt       2.80721394      -0.00000009      19.95723448        4       0.00000000      -0.00137603      -0.00031096       0.01199104
Pt       5.61442781      -0.00000017      19.95723450        4       0.00000000       0.00052914       0.00033566       0.01173199
Pt       1.40360720       2.43111836      19.95723436        4       0.00000000       0.00002013      -0.00061519       0.01175756
Pt       4.21082078       2.43111836      19.95723446        4       0.00000000       0.00000174      -0.00000434       0.01178708
Pt       7.01803484       2.43111844      19.95723431        4       0.00000000       0.00095106      -0.00103023       0.01200595
Pt       2.80721414       4.86223727      19.95723413        4       0.00000000       0.00042360       0.00133909       0.01200556
Pt       5.61442797       4.86223736      19.95723433        4       0.00000000      -0.00055344       0.00028257       0.01172934
Pt       8.42164142       4.86223724      19.95723439        4       0.00000000      -0.00000001      -0.00000403       0.01205824
Pt       1.40360727       0.81037261      22.29206790        3       0.00000000      -0.00148519      -0.00276037      -0.03525285
Pt       4.21082126       0.81037249      22.29206793        3       0.00000000      -0.00143677       0.00098060      -0.03809925
Pt       7.01803475       0.81037258      22.29206787        3       0.00000000       0.00313622       0.00009500      -0.03524744
Pt       2.80721449       3.24149123      22.29206778        3       0.00000000       0.00159272       0.00072810      -0.03810693
Pt       5.61442761       3.24149123      22.29206789        3       0.00000000      -0.00017046      -0.00174124      -0.03809312
Pt       8.42164155       3.24149130      22.29206812        3       0.00000000      -0.00114068       0.00365239      -0.03777339
Pt       4.21082090       5.67260997      22.29206743        3       0.00000000      -0.00165451       0.00268828      -0.03522045
Pt       7.01803489       5.67261038      22.29206778        3       0.00000000       0.00370463      -0.00081331      -0.03776289
Pt       9.82524818       5.67261058      22.29206804        3       0.00000000      -0.00255683      -0.00282256      -0.03778161
Pt      -0.00000057       1.62074568      24.58417368        2       0.00000000       0.00134858       0.00283390       0.04346818
Pt       2.80721445       1.62074549      24.58417387        2       0.00000000      -0.02142370      -0.01344157      -0.00284247
Pt       5.61442780       1.62074538      24.58417368        2       0.00000000       0.02255506      -0.01151542      -0.00283623
Pt       1.40360635       4.05186441      24.58417386        2       0.00000000       0.00463350      -0.00413922       0.04309648
Pt       4.21082088       4.05186391      24.58417389        2       0.00000000      -0.00107513       0.02520778      -0.00298969
Pt       7.01803505       4.05186405      24.58417404        2       0.00000000      -0.00576828      -0.00220462       0.04309745
Pt       2.80721273       6.48298348      24.58417381        2       0.00000000      -0.00304714      -0.00023509       0.04316980
Pt       5.61442805       6.48298330      24.58417394        2       0.00000000       0.00169327      -0.00263442       0.04318139
Pt       8.42164222       6.48298341      24.58417373        2       0.00000000       0.00110468       0.00615574       0.04302150
Pt      -0.00000399      -0.00010138      26.91445500        1       0.00000000       0.00000513       0.00043784      -0.01245412
Pt       2.80539759       0.00020337      26.91686809        1       0.00000000       0.00237083      -0.00490029       0.00272277
Pt       5.61380298      -0.00366572      26.91740163        1       0.00000000       0.00211925       0.00400287       0.00150869
Pt       1.40061792       2.43355680      26.91752891        1       0.00000000       0.00363460      -0.00456292       0.00082858
Pt       4.21082411       2.43111226      26.90853574        1       0.00000000      -0.00004316       0.00002085      -0.01231793
Pt       7.01884721       2.42954283      26.91698460        1       0.00000000       0.00201851       0.00376902       0.00191318
Pt       2.80819898       4.86362294      26.91683821        1       0.00000000      -0.00424926       0.00108520       0.00274539
Pt       5.61806549       4.86346381      26.91743420        1       0.00000000      -0.00587860       0.00060612       0.00156891
Pt       8.42165146       4.86235466      26.91572692        1       0.00000000       0.00001181      -0.00048082      -0.01402282
O        4.21080529       2.43111346      30.21787976        0       0.50000000      -0.00000809      -0.00001338      -0.04233118
H        4.21082181       2.43111847      29.22504059        0       0.50000000       0.00001036       0.00000272       0.04807603
