38
Lattice="8.421641763931781 0.0 0.0 4.2108208819658905 7.293355709136913 0.0 0.0 0.0 46.87624170604845" Properties=species:S:1:pos:R:3:tags:I:1:initial_magmoms:R:1:forces:R:3 charge=0 spin=0 energy=-194.41481157833897 free_energy=-194.41481157833897 stress="0.01023388933390379 3.8794080836623834e-08 1.153944229059789e-08 3.8794080836623834e-08 0.010233904235064983 6.004628403388779e-07 1.153944229059789e-08 6.004628403388779e-07 -6.945577479200438e-05" pbc="T T T"
Pt      -0.00000001       0.00000015      19.95723445        4       0.00000000       0.00000253       0.00000628       0.00966749
Pt       2.80721394      -0.00000009      19.95723448        4       0.00000000      -0.00137621      -0.00031101       0.01199117
Pt       5.61442781      -0.00000017      19.95723450        4       0.00000000       0.00052937       0.00033574       0.01173216
Pt       1.40360720       2.43111836      19.95723436        4       0.00000000       0.00001991      -0.00061523       0.01175796
Pt       4.21082078       2.43111836      19.95723446        4       0.00000000       0.00000189      -0.00000442       0.01178727
Pt       7.01803484       2.43111844      19.95723431        4       0.00000000       0.00095120      -0.00103026       0.01200635
Pt       2.80721414       4.86223727      19.95723413        4       0.00000000       0.00042356       0.00133921       0.01200571
Pt       5.61442797       4.86223736      19.95723433        4       0.00000000      -0.00055344       0.00028248       0.01172976
Pt       8.42164142       4.86223724      19.95723439        4       0.00000000       0.00000014      -0.00000399       0.01205824
Pt       1.40360727       0.81037261      22.29206790        3       0.00000000      -0.00148529      -0.00276088      -0.03525186
Pt       4.21082126       0.81037249      22.29206793        3       0.00000000      -0.00143628       0.00098054      -0.03810227
Pt       7.01803475       0.81037258      22.29206787        3       0.00000000       0.00313553       0.00009442      -0.03524566
Pt       2.80721449       3.24149123      22.29206778        3       0.00000000       0.00159247       0.00072827      -0.03810596
Pt       5.61442761       3.24149123      22.29206789        3       0.00000000      -0.00016978      -0.00174055      -0.03809312
Pt       8.42164155       3.24149130      22.29206812        3       0.00000000      -0.00114068       0.00365293      -0.03777247
Pt       4.21082090       5.67260997      22.29206743        3       0.00000000      -0.00165393       0.00268804      -0.03521951
Pt       7.01803489       5.67261038      22.29206778        3       0.00000000       0.00370521      -0.00081299      -0.03776208
Pt       9.82524818       5.67261058      22.29206804        3       0.00000000      -0.00255708      -0.00282294      -0.03778266
Pt      -0.00000057       1.62074568      24.58417368        2       0.00000000       0.00134991       0.00283237       0.04347128
Pt       2.80721445       1.62074549      24.58417387        2       0.00000000      -0.02142916      -0.01343885      -0.00284100
Pt       5.61442780       1.62074538      24.58417368        2       0.00000000       0.02255934      -0.01151267      -0.00283660
Pt       1.40360635       4.05186441      24.58417386        2       0.00000000       0.00463329      -0.00414211       0.04309745
Pt       4.21082088       4.05186391      24.58417389        2       0.00000000      -0.00107751       0.02520848      -0.00298786
Pt       7.01803505       4.05186405      24.58417404        2       0.00000000      -0.00576881      -0.00220839       0.04309503
Pt       2.80721273       6.48298348      24.58417381        2       0.00000000      -0.00304231      -0.00023413       0.04317114
Pt       5.61442805       6.48298330      24.58417394        2       0.00000000       0.00168868      -0.00263347       0.04317706
Pt       8.42164222       6.48298341      24.58417373        2       0.00000000       0.00110421       0.00615429       0.04301525
Pt      -0.00000392      -0.00010087      26.91445705        1       0.00000000       0.00002152       0.00044796      -0.01245088
Pt       2.80539645       0.00020232      26.91686605        1       0.00000000       0.00237426      -0.00488879       0.00273010
Pt       5.61380354      -0.00366710      26.91740051        1       0.00000000       0.00212003       0.00401372       0.00151774
Pt       1.40061571       2.43355717      26.91753030        1       0.00000000       0.00365644      -0.00456326       0.00082171
Pt       4.21082433       2.43111195      26.90853572        1       0.00000000      -0.00004748       0.00002474      -0.01232791
Pt       7.01884939       2.42954257      26.91698650        1       0.00000000       0.00199871       0.00376816       0.00190689
Pt       2.80819692       4.86362388      26.91683744        1       0.00000000      -0.00423507       0.00107685       0.00274416
Pt       5.61806642       4.86346464      26.91743248        1       0.00000000      -0.00589281       0.00059669       0.00157695
Pt       8.42165067       4.86235452      26.91572799        1       0.00000000       0.00000754      -0.00048054      -0.01402411
O        4.21080656       2.43111092      30.21786248        0       0.50000000      -0.00002168      -0.00003520      -0.04239887
H        4.21082285       2.43112117      29.22502082        0       0.50000000       0.00001168       0.00000837       0.04814194
