38
Lattice="8.421641763931781 0.0 0.0 4.2108208819658905 7.293355709136913 0.0 0.0 0.0 46.87624170604845" Properties=species:S:1:pos:R:3:tags:I:1:initial_magmoms:R:1:forces:R:3 charge=0 spin=0 energy=-194.41437479550206 free_energy=-194.41437479550206 stress="0.010243462398648262 3.608161591728276e-08 4.874110448582769e-09 3.608161591728276e-08 0.010243432596325874 2.9206400853354353e-08 4.874110448582769e-09 2.9206400853354353e-08 -6.94111076882109e-05" pbc="T T T"
Pt      -0.00000001       0.00000015      19.95723445        4       0.00000000       0.00000294       0.00000010       0.00948604
Pt       2.80721394      -0.00000009      19.95723448        4       0.00000000      -0.00143154      -0.00042911       0.01196409
Pt       5.61442781      -0.00000017      19.95723450        4       0.00000000       0.00051609       0.00038820       0.01170173
Pt       1.40360720       2.43111836      19.95723436        4       0.00000000       0.00007472      -0.00063881       0.01172808
Pt       4.21082078       2.43111836      19.95723446        4       0.00000000       0.00000254       0.00000078       0.01166000
Pt       7.01803484       2.43111844      19.95723431        4       0.00000000       0.00108338      -0.00102990       0.01198175
Pt       2.80721414       4.86223727      19.95723413        4       0.00000000       0.00034485       0.00145763       0.01197656
Pt       5.61442797       4.86223736      19.95723433        4       0.00000000      -0.00059248       0.00025312       0.01170077
Pt       8.42164142       4.86223724      19.95723439        4       0.00000000       0.00000032      -0.00000315       0.01212503
Pt       1.40360727       0.81037261      22.29206790        3       0.00000000      -0.00119948      -0.00260773      -0.03410657
Pt       4.21082126       0.81037249      22.29206793        3       0.00000000      -0.00152601       0.00097921      -0.03878066
Pt       7.01803475       0.81037258      22.29206787        3       0.00000000       0.00286003       0.00026381      -0.03411269
Pt       2.80721449       3.24149123      22.29206778        3       0.00000000       0.00160762       0.00083341      -0.03884915
Pt       5.61442761       3.24149123      22.29206789        3       0.00000000      -0.00009464      -0.00179430      -0.03883344
Pt       8.42164155       3.24149130      22.29206812        3       0.00000000      -0.00114954       0.00398704      -0.03782724
Pt       4.21082090       5.67260997      22.29206743        3       0.00000000      -0.00165988       0.00234975      -0.03408998
Pt       7.01803489       5.67261038      22.29206778        3       0.00000000       0.00401960      -0.00099394      -0.03775026
Pt       9.82524818       5.67261058      22.29206804        3       0.00000000      -0.00285796      -0.00301832      -0.03777726
Pt      -0.00000057       1.62074568      24.58417368        2       0.00000000       0.00117330      -0.00065013       0.05384966
Pt       2.80721445       1.62074549      24.58417387        2       0.00000000      -0.02728990      -0.01796455      -0.01066544
Pt       5.61442780       1.62074538      24.58417368        2       0.00000000       0.02919898      -0.01466174      -0.01069735
Pt       1.40360635       4.05186441      24.58417386        2       0.00000000       0.00139519      -0.00313296       0.05156038
Pt       4.21082088       4.05186391      24.58417389        2       0.00000000      -0.00188616       0.03258095      -0.01070550
Pt       7.01803505       4.05186405      24.58417404        2       0.00000000      -0.00343536       0.00034795       0.05152649
Pt       2.80721273       6.48298348      24.58417381        2       0.00000000       0.00003351       0.00137171       0.05377448
Pt       5.61442805       6.48298330      24.58417394        2       0.00000000      -0.00117506      -0.00067156       0.05378093
Pt       8.42164222       6.48298341      24.58417373        2       0.00000000       0.00198555       0.00278378       0.05151359
Pt      -0.00000389      -0.00000401      26.91887882        1       0.00000000       0.00001865       0.00016681      -0.03531746
Pt       2.80647342       0.00005192      26.91776976        1       0.00000000      -0.00507207      -0.01179836      -0.00111442
Pt       5.61427986      -0.00224452      26.91811647        1       0.00000000       0.00373681      -0.00886849      -0.00139118
Pt       1.40175959       2.43233580      26.91812464        1       0.00000000      -0.00894595       0.00087708      -0.00165048
Pt       4.21081933       2.43111289      26.90408802        1       0.00000000      -0.00003161       0.00003971       0.00075133
Pt       7.01829850       2.43044212      26.91773728        1       0.00000000       0.01228480       0.00126533      -0.00135899
Pt       2.80768577       4.86286942      26.91772969        1       0.00000000      -0.00717667       0.01051537      -0.00105914
Pt       5.61642682       4.86326637      26.91814221        1       0.00000000       0.00517035       0.00800817      -0.00133530
Pt       8.42164546       4.86225052      26.91920467        1       0.00000000       0.00002037      -0.00018312      -0.03344251
O        4.21082009       2.43111897      30.19493837        0       0.50000000      -0.00000428      -0.00002746       0.00721542
H        4.21081961       2.43111978      29.20278271        0       0.50000000      -0.00000063       0.00000367       0.01256901
