38
Lattice="8.421641763931781 0.0 0.0 4.2108208819658905 7.293355709136913 0.0 0.0 0.0 46.87624170604845" Properties=species:S:1:pos:R:3:tags:I:1:initial_magmoms:R:1:forces:R:3 charge=0 spin=0 energy=-194.4143767028507 free_energy=-194.4143767028507 stress="0.01024349220097065 3.689608973900249e-08 -2.1594907195776614e-08 3.689608973900249e-08 0.010243493132293224 1.983333941524279e-09 -2.1594907195776614e-08 1.983333941524279e-09 -6.930499512236565e-05" pbc="T T T"
Pt      -0.00000001       0.00000015      19.95723445        4       0.00000000       0.00000289       0.00000010       0.00948481
Pt       2.80721394      -0.00000009      19.95723448        4       0.00000000      -0.00143172      -0.00042900       0.01196390
Pt       5.61442781      -0.00000017      19.95723450        4       0.00000000       0.00051634       0.00038825       0.01170164
Pt       1.40360720       2.43111836      19.95723436        4       0.00000000       0.00007451      -0.00063886       0.01172785
Pt       4.21082078       2.43111836      19.95723446        4       0.00000000       0.00000254       0.00000082       0.01166049
Pt       7.01803484       2.43111844      19.95723431        4       0.00000000       0.00108364      -0.00102987       0.01198135
Pt       2.80721414       4.86223727      19.95723413        4       0.00000000       0.00034474       0.00145791       0.01197641
Pt       5.61442797       4.86223736      19.95723433        4       0.00000000      -0.00059264       0.00025311       0.01170063
Pt       8.42164142       4.86223724      19.95723439        4       0.00000000       0.00000029      -0.00000333       0.01212518
Pt       1.40360727       0.81037261      22.29206790        3       0.00000000      -0.00119949      -0.00260809      -0.03410483
Pt       4.21082126       0.81037249      22.29206793        3       0.00000000      -0.00152665       0.00097882      -0.03877983
Pt       7.01803475       0.81037258      22.29206787        3       0.00000000       0.00286080       0.00026353      -0.03411203
Pt       2.80721449       3.24149123      22.29206778        3       0.00000000       0.00160749       0.00083287      -0.03884860
Pt       5.61442761       3.24149123      22.29206789        3       0.00000000      -0.00009485      -0.00179447      -0.03883278
Pt       8.42164155       3.24149130      22.29206812        3       0.00000000      -0.00114998       0.00398731      -0.03782801
Pt       4.21082090       5.67260997      22.29206743        3       0.00000000      -0.00166032       0.00235011      -0.03408988
Pt       7.01803489       5.67261038      22.29206778        3       0.00000000       0.00402079      -0.00099420      -0.03775190
Pt       9.82524818       5.67261058      22.29206804        3       0.00000000      -0.00285796      -0.00301866      -0.03777711
Pt      -0.00000057       1.62074568      24.58417368        2       0.00000000       0.00117323      -0.00065952       0.05386259
Pt       2.80721445       1.62074549      24.58417387        2       0.00000000      -0.02728027      -0.01795900      -0.01064466
Pt       5.61442780       1.62074538      24.58417368        2       0.00000000       0.02919039      -0.01465909      -0.01067795
Pt       1.40360635       4.05186441      24.58417386        2       0.00000000       0.00139085      -0.00312996       0.05157322
Pt       4.21082088       4.05186391      24.58417389        2       0.00000000      -0.00188646       0.03257169      -0.01068840
Pt       7.01803505       4.05186405      24.58417404        2       0.00000000      -0.00343018       0.00035159       0.05153770
Pt       2.80721273       6.48298348      24.58417381        2       0.00000000       0.00003862       0.00137671       0.05378972
Pt       5.61442805       6.48298330      24.58417394        2       0.00000000      -0.00118419      -0.00066600       0.05379694
Pt       8.42164222       6.48298341      24.58417373        2       0.00000000       0.00198731       0.00278002       0.05152853
Pt      -0.00000481      -0.00000410      26.91888813        1       0.00000000       0.00001032       0.00014961      -0.03537126
Pt       2.80647344       0.00005130      26.91777012        1       0.00000000      -0.00507350      -0.01179064      -0.00111545
Pt       5.61427980      -0.00224574      26.91811678        1       0.00000000       0.00373436      -0.00886248      -0.00139898
Pt       1.40175812       2.43233625      26.91812532        1       0.00000000      -0.00893506       0.00087103      -0.00165135
Pt       4.21081934       2.43111322      26.90409816        1       0.00000000      -0.00003295       0.00003920       0.00066785
Pt       7.01829962       2.43044263      26.91773737        1       0.00000000       0.01227590       0.00126173      -0.00135752
Pt       2.80768468       4.86286971      26.91772994        1       0.00000000      -0.00717104       0.01050948      -0.00106015
Pt       5.61642809       4.86326757      26.91814287        1       0.00000000       0.00516219       0.00800400      -0.00133568
Pt       8.42164559       4.86225027      26.91921216        1       0.00000000       0.00001180      -0.00018262      -0.03348004
O        4.21082201       2.43111996      30.19488801        0       0.50000000       0.00002246      -0.00000198       0.00713993
H        4.21081870       2.43111805      29.20272826        0       0.50000000      -0.00000427       0.00000002       0.01268784
