38
Lattice="8.421641763931781 0.0 0.0 4.2108208819658905 7.293355709136913 0.0 0.0 0.0 46.87624170604845" Properties=species:S:1:pos:R:3:tags:I:1:initial_magmoms:R:1:forces:R:3 charge=0 spin=0 energy=-194.41437861019932 free_energy=-194.41437861019932 stress="0.010243612341582775 3.357259359404452e-08 -9.0700158494883e-09 3.357259359404452e-08 0.010243596509099007 5.094524802018441e-11 -9.0700158494883e-09 5.094524802018441e-11 -6.91022869432345e-05" pbc="T T T"
Pt      -0.00000001       0.00000015      19.95723445        4       0.00000000       0.00000328      -0.00000022       0.00948522
Pt       2.80721394      -0.00000009      19.95723448        4       0.00000000      -0.00143211      -0.00042893       0.01196356
Pt       5.61442781      -0.00000017      19.95723450        4       0.00000000       0.00051557       0.00038826       0.01170173
Pt       1.40360720       2.43111836      19.95723436        4       0.00000000       0.00007570      -0.00063932       0.01172768
Pt       4.21082078       2.43111836      19.95723446        4       0.00000000       0.00000213       0.00000070       0.01166082
Pt       7.01803484       2.43111844      19.95723431        4       0.00000000       0.00108330      -0.00103016       0.01198126
Pt       2.80721414       4.86223727      19.95723413        4       0.00000000       0.00034522       0.00145779       0.01197611
Pt       5.61442797       4.86223736      19.95723433        4       0.00000000      -0.00059273       0.00025308       0.01170058
Pt       8.42164142       4.86223724      19.95723439        4       0.00000000       0.00000033      -0.00000312       0.01212584
Pt       1.40360727       0.81037261      22.29206790        3       0.00000000      -0.00120176      -0.00260879      -0.03410809
Pt       4.21082126       0.81037249      22.29206793        3       0.00000000      -0.00152726       0.00097937      -0.03877616
Pt       7.01803475       0.81037258      22.29206787        3       0.00000000       0.00286119       0.00026319      -0.03411573
Pt       2.80721449       3.24149123      22.29206778        3       0.00000000       0.00160794       0.00083441      -0.03884593
Pt       5.61442761       3.24149123      22.29206789        3       0.00000000      -0.00009284      -0.00179443      -0.03883244
Pt       8.42164155       3.24149130      22.29206812        3       0.00000000      -0.00115022       0.00398670      -0.03783120
Pt       4.21082090       5.67260997      22.29206743        3       0.00000000      -0.00166042       0.00235223      -0.03409135
Pt       7.01803489       5.67261038      22.29206778        3       0.00000000       0.00402042      -0.00099456      -0.03775054
Pt       9.82524818       5.67261058      22.29206804        3       0.00000000      -0.00285856      -0.00301809      -0.03777723
Pt      -0.00000057       1.62074568      24.58417368        2       0.00000000       0.00117553      -0.00067019       0.05389908
Pt       2.80721445       1.62074549      24.58417387        2       0.00000000      -0.02724212      -0.01794661      -0.01060972
Pt       5.61442780       1.62074538      24.58417368        2       0.00000000       0.02915921      -0.01463952      -0.01061872
Pt       1.40360635       4.05186441      24.58417386        2       0.00000000       0.00137909      -0.00312447       0.05158281
Pt       4.21082088       4.05186391      24.58417389        2       0.00000000      -0.00188504       0.03253223      -0.01064569
Pt       7.01803505       4.05186405      24.58417404        2       0.00000000      -0.00343013       0.00036082       0.05157900
Pt       2.80721273       6.48298348      24.58417381        2       0.00000000       0.00005079       0.00138666       0.05381041
Pt       5.61442805       6.48298330      24.58417394        2       0.00000000      -0.00119283      -0.00066458       0.05382456
Pt       8.42164222       6.48298341      24.58417373        2       0.00000000       0.00198534       0.00277117       0.05154653
Pt      -0.00000417      -0.00000384      26.91890094        1       0.00000000       0.00001129       0.00017236      -0.03543014
Pt       2.80647370       0.00004970      26.91777068        1       0.00000000      -0.00506998      -0.01179483      -0.00111363
Pt       5.61427998      -0.00224692      26.91811723        1       0.00000000       0.00373595      -0.00883835      -0.00139749
Pt       1.40177227       2.43233765      26.91812268        1       0.00000000      -0.00901332       0.00085901      -0.00163975
Pt       4.21081963       2.43111332      26.90413107        1       0.00000000      -0.00000932       0.00003101       0.00048060
Pt       7.01830091       2.43044395      26.91773784        1       0.00000000       0.01227461       0.00126185      -0.00136853
Pt       2.80768314       4.86287036      26.91773101        1       0.00000000      -0.00716552       0.01051272      -0.00104622
Pt       5.61641397       4.86326796      26.91814645        1       0.00000000       0.00524347       0.00799326      -0.00135227
Pt       8.42164675       4.86225117      26.91922458        1       0.00000000      -0.00001447      -0.00020248      -0.03356225
O        4.21081805       2.43111977      30.19486488        0       0.50000000       0.00000776       0.00000408       0.00713908
H        4.21082004       2.43111591      29.20270328        0       0.50000000       0.00000041      -0.00000229       0.01272804
