38
Lattice="8.421641763931781 0.0 0.0 4.2108208819658905 7.293355709136913 0.0 0.0 0.0 46.87624170604845" Properties=species:S:1:pos:R:3:tags:I:1:initial_magmoms:R:1:forces:R:3 charge=0 spin=0 energy=-194.41468950802647 free_energy=-194.41468950802647 stress="0.010195532813668251 6.260446383521412e-08 -1.1104953401286366e-08 6.260446383521412e-08 0.010195453651249409 -3.613377153044439e-09 -1.1104953401286366e-08 -3.613377153044439e-09 -0.00015394965885207057" pbc="T T T"
Pt      -0.00000001       0.00000015      19.95723445        4       0.00000000       0.00000291      -0.00000589       0.00971569
Pt       2.80721394      -0.00000009      19.95723448        4       0.00000000      -0.00135406      -0.00031564       0.01206182
Pt       5.61442781      -0.00000017      19.95723450        4       0.00000000       0.00042326       0.00035176       0.01177925
Pt       1.40360720       2.43111836      19.95723436        4       0.00000000       0.00009296      -0.00054843       0.01180616
Pt       4.21082078       2.43111836      19.95723446        4       0.00000000       0.00000271       0.00000296       0.01154004
Pt       7.01803484       2.43111844      19.95723431        4       0.00000000       0.00094663      -0.00102742       0.01208084
Pt       2.80721414       4.86223727      19.95723413        4       0.00000000       0.00040355       0.00134216       0.01206867
Pt       5.61442797       4.86223736      19.95723433        4       0.00000000      -0.00051752       0.00019789       0.01178067
Pt       8.42164142       4.86223724      19.95723439        4       0.00000000       0.00000002      -0.00000006       0.01174325
Pt       1.40360727       0.81037261      22.29206790        3       0.00000000      -0.00140716      -0.00261558      -0.03534349
Pt       4.21082126       0.81037249      22.29206793        3       0.00000000      -0.00150155       0.00105127      -0.03793029
Pt       7.01803475       0.81037258      22.29206787        3       0.00000000       0.00297267       0.00009222      -0.03535578
Pt       2.80721449       3.24149123      22.29206778        3       0.00000000       0.00163136       0.00079100      -0.03805781
Pt       5.61442761       3.24149123      22.29206789        3       0.00000000      -0.00014435      -0.00179465      -0.03804024
Pt       8.42164155       3.24149130      22.29206812        3       0.00000000      -0.00088492       0.00345618      -0.03772028
Pt       4.21082090       5.67260997      22.29206743        3       0.00000000      -0.00156947       0.00252528      -0.03532869
Pt       7.01803489       5.67261038      22.29206778        3       0.00000000       0.00344770      -0.00097039      -0.03758015
Pt       9.82524818       5.67261058      22.29206804        3       0.00000000      -0.00254597      -0.00253743      -0.03761289
Pt      -0.00000057       1.62074568      24.58417368        2       0.00000000       0.00125473       0.01119573       0.02968597
Pt       2.80721445       1.62074549      24.58417387        2       0.00000000      -0.02648223      -0.01784614      -0.01250672
Pt       5.61442780       1.62074538      24.58417368        2       0.00000000       0.02858880      -0.01423208      -0.01252234
Pt       1.40360635       4.05186441      24.58417386        2       0.00000000       0.01041996      -0.00815057       0.03226149
Pt       4.21082088       4.05186391      24.58417389        2       0.00000000      -0.00207457       0.03185751      -0.01247631
Pt       7.01803505       4.05186405      24.58417404        2       0.00000000      -0.01239526      -0.00480969       0.03223862
Pt       2.80721273       6.48298348      24.58417381        2       0.00000000      -0.01025812      -0.00444812       0.02957193
Pt       5.61442805       6.48298330      24.58417394        2       0.00000000       0.00903378      -0.00662171       0.02954293
Pt       8.42164222       6.48298341      24.58417373        2       0.00000000       0.00191267       0.01306009       0.03207784
Pt       0.00000107       0.00003122      26.90630428        1       0.00000000      -0.00001551       0.00026167       0.03122689
Pt       2.80587767      -0.00122078      26.91706162        1       0.00000000       0.00250183       0.00200587       0.00127290
Pt       5.61452269      -0.00272488      26.91756246        1       0.00000000      -0.00255363       0.00191824       0.00025471
Pt       1.40137216       2.43228870      26.91750873        1       0.00000000       0.00274396       0.00135652       0.00014682
Pt       4.21082104       2.43112176      26.90207015        1       0.00000000      -0.00000400      -0.00000678       0.03029883
Pt       7.01957281       2.43048891      26.91696621        1       0.00000000      -0.00276869       0.00128351       0.00115570
Pt       2.80701261       4.86408795      26.91704593        1       0.00000000       0.00029463      -0.00325709       0.00121709
Pt       5.61656805       4.86380012      26.91760423        1       0.00000000      -0.00020286      -0.00329901       0.00024830
Pt       8.42164204       4.86220766      26.90866326        1       0.00000000      -0.00000024      -0.00026679       0.02218416
O        4.21081877       2.43111082      30.23258206        0       0.50000000       0.00000852      -0.00001195      -0.00560083
H        4.21081742       2.43112587      29.24131326        0       0.50000000      -0.00000235       0.00001564      -0.00188447
