38
Lattice="8.421641763931781 0.0 0.0 4.2108208819658905 7.293355709136913 0.0 0.0 0.0 46.87624170604845" Properties=species:S:1:pos:R:3:tags:I:1:initial_magmoms:R:1:forces:R:3 charge=0 spin=0 energy=-194.41490313107334 free_energy=-194.41490313107334 stress="0.01022712979465723 6.390448703541551e-08 -3.015519922655585e-08 6.390448703541551e-08 0.010227078571915627 -2.102331864151097e-09 -3.015519922655585e-08 -2.102331864151097e-09 -0.00011159655696246773" pbc="T T T"
Pt      -0.00000001       0.00000015      19.95723445        4       0.00000000       0.00000864      -0.00000647       0.00977268
Pt       2.80721394      -0.00000009      19.95723448        4       0.00000000      -0.00137787      -0.00031784       0.01202340
Pt       5.61442781      -0.00000017      19.95723450        4       0.00000000       0.00043733       0.00036997       0.01174634
Pt       1.40360720       2.43111836      19.95723436        4       0.00000000       0.00010341      -0.00057929       0.01177291
Pt       4.21082078       2.43111836      19.95723446        4       0.00000000      -0.00000176       0.00000119       0.01173014
Pt       7.01803484       2.43111844      19.95723431        4       0.00000000       0.00096128      -0.00104710       0.01204607
Pt       2.80721414       4.86223727      19.95723413        4       0.00000000       0.00041041       0.00136270       0.01202942
Pt       5.61442797       4.86223736      19.95723433        4       0.00000000      -0.00054363       0.00020782       0.01174638
Pt       8.42164142       4.86223724      19.95723439        4       0.00000000      -0.00000101       0.00000401       0.01195985
Pt       1.40360727       0.81037261      22.29206790        3       0.00000000      -0.00146560      -0.00269989      -0.03534751
Pt       4.21082126       0.81037249      22.29206793        3       0.00000000      -0.00156054       0.00102594      -0.03789239
Pt       7.01803475       0.81037258      22.29206787        3       0.00000000       0.00308087       0.00008825      -0.03543696
Pt       2.80721449       3.24149123      22.29206778        3       0.00000000       0.00162320       0.00087050      -0.03804706
Pt       5.61442761       3.24149123      22.29206789        3       0.00000000      -0.00008837      -0.00182965      -0.03802722
Pt       8.42164155       3.24149130      22.29206812        3       0.00000000      -0.00095065       0.00354993      -0.03788672
Pt       4.21082090       5.67260997      22.29206743        3       0.00000000      -0.00163515       0.00261319      -0.03537847
Pt       7.01803489       5.67261038      22.29206778        3       0.00000000       0.00356280      -0.00097405      -0.03771462
Pt       9.82524818       5.67261058      22.29206804        3       0.00000000      -0.00259802      -0.00263291      -0.03777159
Pt      -0.00000057       1.62074568      24.58417368        2       0.00000000       0.00103522       0.00572907       0.03953017
Pt       2.80721445       1.62074549      24.58417387        2       0.00000000      -0.02150380      -0.01515110      -0.00397028
Pt       5.61442780       1.62074538      24.58417368        2       0.00000000       0.02386533      -0.01136098      -0.00399725
Pt       1.40360635       4.05186441      24.58417386        2       0.00000000       0.00648683      -0.00572343       0.04052515
Pt       4.21082088       4.05186391      24.58417389        2       0.00000000      -0.00215420       0.02623764      -0.00391062
Pt       7.01803505       4.05186405      24.58417404        2       0.00000000      -0.00832435      -0.00264846       0.04075585
Pt       2.80721273       6.48298348      24.58417381        2       0.00000000      -0.00538799      -0.00180809       0.03917287
Pt       5.61442805       6.48298330      24.58417394        2       0.00000000       0.00438981      -0.00370332       0.03923284
Pt       8.42164222       6.48298341      24.58417373        2       0.00000000       0.00174531       0.00842172       0.04024854
Pt       0.00001750       0.00001593      26.91182247        1       0.00000000       0.00002225       0.00051576       0.00182703
Pt       2.80603425      -0.00104979      26.91725014        1       0.00000000       0.00112559       0.00056479       0.00085579
Pt       5.61447517      -0.00272195      26.91752375        1       0.00000000      -0.00148788       0.00134226       0.00094574
Pt       1.40151182       2.43228385      26.91746326        1       0.00000000       0.00101980       0.00108602       0.00074979
Pt       4.21081459       2.43110580      26.90733510        1       0.00000000       0.00029671       0.00012058      -0.00257941
Pt       7.01933584       2.43048304      26.91716729        1       0.00000000      -0.00068588       0.00116723       0.00052281
Pt       2.80712415       4.86392512      26.91722079        1       0.00000000      -0.00035744      -0.00175657       0.00083473
Pt       5.61651178       4.86379910      26.91758819        1       0.00000000       0.00045727      -0.00240767       0.00076259
Pt       8.42169261       4.86223428      26.91351753        1       0.00000000      -0.00024651      -0.00063472      -0.00331594
O        4.21135088       2.43112116      30.22603096        0       0.50000000       0.00089770       0.00000525       0.03858547
H        4.21004702       2.43111323      29.23546951        0       0.50000000      -0.00115953      -0.00000222      -0.03810032
