36
Lattice="8.421641763931781 0.0 0.0 4.2108208819658905 7.293355709136913 0.0 0.0 0.0 46.87624170604845" Properties=species:S:1:pos:R:3:tags:I:1:forces:R:3 charge=0 spin=0 energy=-187.00367709663286 free_energy=-187.00367709663286 stress="0.01049664057791233 3.888211530522767e-09 1.3859112746317237e-09 3.888211530522767e-09 0.010496661067008972 -5.412300121965252e-11 1.3859112746317237e-09 -5.412300121965252e-11 4.620766412699595e-05" pbc="T T T"
Pt      -0.00000014       0.00000001      19.95723434        4       0.00000146      -0.00000148       0.01628021
Pt       2.80721406      -0.00000017      19.95723453        4      -0.00000260       0.00000210       0.01627129
Pt       5.61442782      -0.00000007      19.95723459        4       0.00000095       0.00000377       0.01627074
Pt       1.40360721       2.43111843      19.95723438        4      -0.00000103       0.00000054       0.01627294
Pt       4.21082079       2.43111835      19.95723450        4       0.00000316       0.00000188       0.01627184
Pt       7.01803476       2.43111845      19.95723434        4      -0.00000180       0.00000037       0.01628049
Pt       2.80721406       4.86223731      19.95723412        4       0.00000225      -0.00000194       0.01628100
Pt       5.61442804       4.86223736      19.95723427        4      -0.00000296      -0.00000272       0.01628038
Pt       8.42164140       4.86223726      19.95723442        4       0.00000081      -0.00000364       0.01627143
Pt       1.40360736       0.81037259      22.29206790        3      -0.00000335      -0.00000023      -0.04298176
Pt       4.21082124       0.81037251      22.29206791        3      -0.00000147       0.00000483      -0.04298275
Pt       7.01803474       0.81037259      22.29206782        3       0.00000158       0.00000238      -0.04298645
Pt       2.80721449       3.24149124      22.29206775        3      -0.00000644       0.00000422      -0.04298164
Pt       5.61442762       3.24149121      22.29206790        3       0.00000474       0.00000236      -0.04298598
Pt       8.42164156       3.24149119      22.29206804        3       0.00000131       0.00000138      -0.04298316
Pt       4.21082091       5.67260997      22.29206796        3       0.00000062       0.00000335      -0.04298498
Pt       7.01803484       5.67261040      22.29206779        3      -0.00000506      -0.00000532      -0.04297999
Pt       9.82524824       5.67261062      22.29206803        3       0.00000838      -0.00000967      -0.04298340
Pt      -0.00000056       1.62074570      24.58417379        2       0.00000398      -0.00000131       0.04298434
Pt       2.80721437       1.62074546      24.58417393        2      -0.00000619       0.00000521       0.04298299
Pt       5.61442780       1.62074538      24.58417375        2       0.00000167       0.00000539       0.04298107
Pt       1.40360638       4.05186440      24.58417386        2       0.00000650      -0.00000311       0.04298630
Pt       4.21082088       4.05186404      24.58417376        2      -0.00000246       0.00000434       0.04298224
Pt       7.01803504       4.05186408      24.58417405        2      -0.00000196       0.00000375       0.04298086
Pt       2.80721280       6.48298343      24.58417370        2       0.00001304      -0.00000854       0.04298372
Pt       5.61442799       6.48298326      24.58417388        2      -0.00000562      -0.00000258       0.04297988
Pt       8.42164221       6.48298341      24.58417380        2      -0.00000895      -0.00000691       0.04298466
Pt       0.00000046       0.00000001      26.91900744        1       0.00000113       0.00000095      -0.01627945
Pt       2.80721395      -0.00000013      26.91900723        1      -0.00000002       0.00000213      -0.01627050
Pt       5.61442778      -0.00000004      26.91900705        1      -0.00000090       0.00000075      -0.01626957
Pt       1.40360735       2.43111851      26.91900740        1      -0.00000013       0.00000195      -0.01628093
Pt       4.21082085       2.43111853      26.91900721        1       0.00000085       0.00000073      -0.01627192
Pt       7.01803488       2.43111864      26.91900722        1       0.00000009      -0.00000125      -0.01627114
Pt       2.80721398       4.86223724      26.91900752        1      -0.00000440      -0.00000223      -0.01628113
Pt       5.61442795       4.86223740      26.91900730        1      -0.00000096      -0.00000157      -0.01627158
Pt       8.42164126       4.86223710      26.91900731        1       0.00000363       0.00000002      -0.01627973
