36
Lattice="8.421641763931781 0.0 0.0 4.2108208819658905 7.293355709136913 0.0 0.0 0.0 46.87624170604845" Properties=species:S:1:pos:R:3:tags:I:1:forces:R:3 charge=0 spin=0 energy=-186.93033381965532 free_energy=-186.93033381965532 stress="0.00856211967766285 -1.7591320622400985e-09 -1.0668663869006778e-10 -1.7591320622400985e-09 0.008562121540307999 -2.8431104137638386e-09 -1.0668663869006778e-10 -2.8431104137638386e-09 -0.003328339895233512" pbc="T T T"
Pt       0.00000000       0.00000000      20.00000000        4       0.00000205      -0.00000291      -0.22563678
Pt       2.80721392       0.00000000      20.00000000        4       0.00000034      -0.00000206      -0.22563581
Pt       5.61442784       0.00000000      20.00000000        4      -0.00000251      -0.00000136      -0.22563513
Pt       1.40360696       2.43111857      20.00000000        4       0.00000124       0.00000002      -0.22563797
Pt       4.21082088       2.43111857      20.00000000        4       0.00000185       0.00000005      -0.22563618
Pt       7.01803480       2.43111857      20.00000000        4      -0.00000260      -0.00000025      -0.22563814
Pt       2.80721392       4.86223714      20.00000000        4       0.00000075       0.00000099      -0.22563758
Pt       5.61442784       4.86223714      20.00000000        4      -0.00000226       0.00000167      -0.22563596
Pt       8.42164176       4.86223714      20.00000000        4       0.00000138       0.00000265      -0.22563736
Pt       1.40360696       0.81037286      22.29208057        3       0.00000146      -0.00000385       0.21236134
Pt       4.21082088       0.81037286      22.29208057        3       0.00000367      -0.00000316       0.21236089
Pt       7.01803480       0.81037286      22.29208057        3      -0.00000388      -0.00000297       0.21236150
Pt       2.80721392       3.24149143      22.29208057        3       0.00000090      -0.00000073       0.21235913
Pt       5.61442784       3.24149143      22.29208057        3      -0.00000337       0.00000014       0.21236056
Pt       8.42164176       3.24149143      22.29208057        3       0.00000266       0.00000091       0.21236099
Pt       4.21082088       5.67261000      22.29208057        3       0.00000484       0.00000162       0.21235865
Pt       7.01803480       5.67261000      22.29208057        3      -0.00000232       0.00000348       0.21235979
Pt       9.82524872       5.67261000      22.29208057        3      -0.00000261       0.00000395       0.21236129
Pt       0.00000000       1.62074571      24.58416114        2       0.00000321      -0.00000152      -0.21236049
Pt       2.80721392       1.62074571      24.58416114        2       0.00000093      -0.00000286      -0.21235998
Pt       5.61442784       1.62074571      24.58416114        2      -0.00000302      -0.00000311      -0.21236071
Pt       1.40360696       4.05186428      24.58416114        2      -0.00000292       0.00000153      -0.21236056
Pt       4.21082088       4.05186428      24.58416114        2       0.00000484      -0.00000006      -0.21235989
Pt       7.01803480       4.05186428      24.58416114        2      -0.00000245       0.00000012      -0.21236065
Pt       2.80721392       6.48298285      24.58416114        2      -0.00000714       0.00000229      -0.21236083
Pt       5.61442784       6.48298285      24.58416114        2      -0.00000174       0.00000228      -0.21236084
Pt       8.42164176       6.48298285      24.58416114        2       0.00000519       0.00000379      -0.21235974
Pt       0.00000000       0.00000000      26.87624171        1       0.00000259      -0.00000209       0.22563729
Pt       2.80721392       0.00000000      26.87624171        1       0.00000070      -0.00000139       0.22563592
Pt       5.61442784       0.00000000      26.87624171        1      -0.00000216      -0.00000208       0.22563438
Pt       1.40360696       2.43111857      26.87624171        1       0.00000125      -0.00000028       0.22563832
Pt       4.21082088       2.43111857      26.87624171        1       0.00000194      -0.00000048       0.22563633
Pt       7.01803480       2.43111857      26.87624171        1      -0.00000250       0.00000018       0.22563824
Pt       2.80721392       4.86223714      26.87624171        1       0.00000038       0.00000170       0.22563744
Pt       5.61442784       4.86223714      26.87624171        1      -0.00000223       0.00000114       0.22563593
Pt       8.42164176       4.86223714      26.87624171        1       0.00000155       0.00000281       0.22563691
