40
Lattice="8.421641763931781 0.0 0.0 4.2108208819658905 7.293355709136913 0.0 0.0 0.0 46.87624170604845" Properties=species:S:1:pos:R:3:tags:I:1:forces:R:3 charge=0 spin=0 energy=-206.4244048686898 free_energy=-206.4244048686898 stress="0.010450773872435093 1.079653429769678e-05 -6.520511760754744e-06 1.079653429769678e-05 0.010481043718755245 -5.761459078712505e-07 -6.520511760754744e-06 -5.761459078712505e-07 -0.00012494364636950195" pbc="T T T"
Pt      -0.00000003       0.00000022      19.95723434        4      -0.00028016       0.00005198       0.01835767
Pt       2.80721396      -0.00000018      19.95723452        4      -0.00043444       0.00055135       0.01846371
Pt       5.61442778      -0.00000004      19.95723454        4      -0.00042565      -0.00004919       0.01836560
Pt       1.40360719       2.43111838      19.95723440        4      -0.00034141       0.00000433       0.01830892
Pt       4.21082079       2.43111832      19.95723449        4      -0.00059262       0.00028817       0.01808180
Pt       7.01803484       2.43111842      19.95723441        4       0.00000660      -0.00000738       0.01761140
Pt       2.80721406       4.86223725      19.95723409        4      -0.00022021       0.00021347       0.01881536
Pt       5.61442803       4.86223733      19.95723425        4       0.00006431       0.00067065       0.01809408
Pt       8.42164141       4.86223723      19.95723442        4      -0.00018157       0.00016145       0.01855603
Pt       1.40360730       0.81037260      22.29206788        3      -0.00079779       0.00149873      -0.05140155
Pt       4.21082126       0.81037254      22.29206791        3      -0.00000407      -0.00010022      -0.05113760
Pt       7.01803479       0.81037259      22.29206783        3      -0.00163492      -0.00048900      -0.05085197
Pt       2.80721452       3.24149125      22.29206775        3      -0.00079755       0.00219043      -0.05110830
Pt       5.61442760       3.24149123      22.29206789        3      -0.00161406       0.00252523      -0.04961628
Pt       8.42164156       3.24149116      22.29206803        3      -0.00006721       0.00195167      -0.05134342
Pt       4.21082093       5.67260998      22.29206800        3      -0.00117841       0.00064078      -0.05297092
Pt       7.01803487       5.67261039      22.29206775        3      -0.00025418      -0.00012459      -0.05283689
Pt       9.82524824       5.67261062      22.29206803        3      -0.00120349       0.00065292      -0.05253846
Pt      -0.00000058       1.62074570      24.58417378        2      -0.00036211      -0.00278254       0.03135689
Pt       2.80721444       1.62074548      24.58417392        2       0.00709950      -0.00411419       0.03183539
Pt       5.61442778       1.62074537      24.58417373        2       0.00217292       0.00008130       0.02393080
Pt       1.40360636       4.05186440      24.58417384        2       0.00604369      -0.00248366       0.02658718
Pt       4.21082088       4.05186399      24.58417380        2      -0.00056026      -0.00439233       0.03256798
Pt       7.01803502       4.05186406      24.58417406        2       0.00059867      -0.00940656       0.02777535
Pt       2.80721280       6.48298341      24.58417369        2       0.00460155      -0.00238359       0.03597869
Pt       5.61442796       6.48298324      24.58417387        2       0.00152488      -0.00076053       0.03279462
Pt       8.42164221       6.48298340      24.58417380        2      -0.00322352       0.00100357       0.03326369
Pt       0.00511136      -0.00349722      26.91652552        1      -0.01457443      -0.00170474      -0.00178333
Pt       2.80741497      -0.00100404      26.91673918        1       0.01574664      -0.01055867      -0.00351854
Pt       5.61736248      -0.00297539      26.91455827        1      -0.00143965      -0.00674374       0.00674926
Pt       1.40649049       2.42830002      26.91417526        1      -0.00375841       0.00301613       0.00921393
Pt       4.21463081       2.42661859      26.91559490        1      -0.00617176       0.00145728       0.00034067
Pt       7.02026612       2.42384402      26.91549263        1       0.00416493       0.01634946      -0.00032460
Pt       2.81059217       4.85817684      26.91661521        1      -0.00349425       0.00606647       0.00153104
Pt       5.61734938       4.85797063      26.91223748        1       0.00405685       0.00330958       0.00923770
Pt       8.42327868       4.85932131      26.91338486        1      -0.00249458       0.00306372       0.00209507
N        9.85935382       4.95893123      31.00592165        0      -0.00134194       0.00867410       0.01027232
H        9.60247831       4.11778468      30.47275212        0       0.00407307      -0.00350614      -0.00246740
H        9.59087880       5.76038856      30.42044698        0      -0.01756090       0.01093496      -0.00924083
H       10.88650874       4.97065962      31.04843543        0       0.01485581      -0.01575057       0.00095482
