40
Lattice="8.421641763931781 0.0 0.0 4.2108208819658905 7.293355709136913 0.0 0.0 0.0 46.87624170604845" Properties=species:S:1:pos:R:3:tags:I:1:forces:R:3 charge=0 spin=0 energy=-206.4229743572152 free_energy=-206.4229743572152 stress="0.010540361516177654 1.8472319425200112e-06 -4.044223089749721e-07 1.8472319425200112e-06 0.010557933710515499 -6.2014323702896945e-06 -4.044223089749721e-07 -6.2014323702896945e-06 -1.7528108173792134e-06" pbc="T T T"
Pt      -0.00000003       0.00000022      19.95723434        4       0.00046880       0.00013808       0.01845563
Pt       2.80721396      -0.00000018      19.95723452        4      -0.00055122       0.00048121       0.01833612
Pt       5.61442778      -0.00000004      19.95723454        4      -0.00019088      -0.00004274       0.01889263
Pt       1.40360719       2.43111838      19.95723440        4      -0.00026297       0.00048360       0.01860616
Pt       4.21082079       2.43111832      19.95723449        4      -0.00053350       0.00050025       0.01778193
Pt       7.01803484       2.43111842      19.95723441        4       0.00018507       0.00007919       0.01779302
Pt       2.80721406       4.86223725      19.95723409        4      -0.00010847       0.00039274       0.01855188
Pt       5.61442803       4.86223733      19.95723425        4       0.00032954       0.00050141       0.01854363
Pt       8.42164141       4.86223723      19.95723442        4       0.00020370       0.00028322       0.01844590
Pt       1.40360730       0.81037260      22.29206788        3       0.00010669       0.00224161      -0.05217969
Pt       4.21082126       0.81037254      22.29206791        3       0.00036511       0.00036938      -0.05395037
Pt       7.01803479       0.81037259      22.29206783        3      -0.00095441       0.00051300      -0.05390830
Pt       2.80721452       3.24149125      22.29206775        3       0.00001404       0.00246200      -0.05136808
Pt       5.61442760       3.24149123      22.29206789        3       0.00012255       0.00076532      -0.04714990
Pt       8.42164156       3.24149116      22.29206803        3       0.00069288       0.00201913      -0.05116170
Pt       4.21082093       5.67260998      22.29206800        3      -0.00084226       0.00173385      -0.05164512
Pt       7.01803487       5.67261039      22.29206775        3       0.00064934       0.00122518      -0.05237789
Pt       9.82524824       5.67261062      22.29206803        3      -0.00029951       0.00179804      -0.05125321
Pt      -0.00000058       1.62074570      24.58417378        2       0.00389843       0.00343612       0.05476575
Pt       2.80721444       1.62074548      24.58417392        2      -0.00251232       0.00121898       0.05268520
Pt       5.61442778       1.62074537      24.58417373        2       0.00064996       0.00416853       0.05458422
Pt       1.40360636       4.05186440      24.58417384        2       0.00206653      -0.01544407       0.03734098
Pt       4.21082088       4.05186399      24.58417380        2       0.00641991      -0.00325837       0.05024023
Pt       7.01803502       4.05186406      24.58417406        2      -0.00725575      -0.00553153       0.05022513
Pt       2.80721280       6.48298341      24.58417369        2      -0.00317447      -0.00130138       0.03297076
Pt       5.61442796       6.48298324      24.58417387        2      -0.00182001      -0.01717236       0.04878764
Pt       8.42164221       6.48298340      24.58417380        2       0.00264007      -0.00384423       0.03180238
Pt      -0.00070832      -0.00833023      26.91374698        1       0.01037550       0.01760232       0.00563879
Pt       2.80834499      -0.00840858      26.91311255        1      -0.01034991       0.01939519       0.00812873
Pt       5.61428906      -0.00269206      26.91834152        1       0.00272655       0.00667000      -0.01277178
Pt       1.40392826       2.42651167      26.92588818        1      -0.00229451      -0.01311180      -0.04058920
Pt       4.20675658       2.42782583      26.91937201        1       0.02087744      -0.01241509      -0.01616560
Pt       7.02243803       2.42711102      26.92035231        1      -0.02121378      -0.00936927      -0.01970843
Pt       2.80480015       4.85810025      26.91602575        1       0.01883733      -0.00584963       0.00451568
Pt       5.61455481       4.85206062      26.92455311        1       0.00018374       0.01823294      -0.04381691
Pt       8.42401394       4.85717068      26.91556357        1      -0.01964747      -0.00014981       0.00693166
N        9.82759039       5.21948029      30.99175627        0      -0.00153980       0.01901101      -0.01813863
H        9.00903008       5.75574451      30.67288796        0       0.03300322      -0.00717680       0.00493360
H       10.65634585       5.74922529      30.68868904        0      -0.03257294      -0.00814485       0.00338284
H        9.82910609       4.34897779      30.44374861        0       0.00130771      -0.00291030       0.00384462
