40
Lattice="8.421641763931781 0.0 0.0 4.2108208819658905 7.293355709136913 0.0 0.0 0.0 46.87624170604845" Properties=species:S:1:pos:R:3:tags:I:1:forces:R:3 charge=0 spin=0 energy=-206.4251372905648 free_energy=-206.4251372905648 stress="0.010473898611962795 4.133449692744762e-06 -1.1380708428987418e-06 4.133449692744762e-06 0.010501502081751823 -2.6519342100073118e-06 -1.1380708428987418e-06 -2.6519342100073118e-06 -9.13620533538051e-05" pbc="T T T"
Pt      -0.00000003       0.00000022      19.95723434        4       0.00039726       0.00060709       0.01854140
Pt       2.80721396      -0.00000018      19.95723452        4      -0.00085291       0.00097636       0.01850315
Pt       5.61442778      -0.00000004      19.95723454        4      -0.00034415       0.00096682       0.01861460
Pt       1.40360719       2.43111838      19.95723440        4      -0.00026686       0.00078340       0.01868250
Pt       4.21082079       2.43111832      19.95723449        4       0.00003980       0.00112453       0.01726051
Pt       7.01803484       2.43111842      19.95723441        4      -0.00045007       0.00071565       0.01732455
Pt       2.80721406       4.86223725      19.95723409        4      -0.00023005       0.00099265       0.01887970
Pt       5.61442803       4.86223733      19.95723425        4       0.00015131       0.00122594       0.01851363
Pt       8.42164141       4.86223723      19.95723442        4       0.00003217       0.00097558       0.01885712
Pt       1.40360730       0.81037260      22.29206788        3       0.00022237       0.00473227      -0.05124512
Pt       4.21082126       0.81037254      22.29206791        3       0.00003459       0.00271896      -0.05187001
Pt       7.01803479       0.81037259      22.29206783        3      -0.00060600       0.00328073      -0.05238264
Pt       2.80721452       3.24149125      22.29206775        3      -0.00023498       0.00528786      -0.05346522
Pt       5.61442760       3.24149123      22.29206789        3      -0.00007970       0.00495738      -0.04568465
Pt       8.42164156       3.24149116      22.29206803        3       0.00073725       0.00452681      -0.05290806
Pt       4.21082093       5.67260998      22.29206800        3      -0.00121269       0.00397268      -0.05255097
Pt       7.01803487       5.67261039      22.29206775        3       0.00044428       0.00336171      -0.05294797
Pt       9.82524824       5.67261062      22.29206803        3      -0.00026918       0.00367583      -0.05081197
Pt      -0.00000058       1.62074570      24.58417378        2       0.00008022      -0.01137341       0.03047316
Pt       2.80721444       1.62074548      24.58417392        2       0.00295798      -0.01258419       0.03034369
Pt       5.61442778       1.62074537      24.58417373        2       0.00053699      -0.00735658       0.03145902
Pt       1.40360636       4.05186440      24.58417384        2       0.00204259      -0.00962735       0.03586202
Pt       4.21082088       4.05186399      24.58417380        2       0.00220605      -0.01003397       0.03868636
Pt       7.01803502       4.05186406      24.58417406        2      -0.00188039      -0.01036410       0.03753701
Pt       2.80721280       6.48298341      24.58417369        2      -0.00298677      -0.01338757       0.03445994
Pt       5.61442796       6.48298324      24.58417387        2      -0.00021868      -0.01488954       0.04295234
Pt       8.42164221       6.48298340      24.58417380        2       0.00205290      -0.01532849       0.03566613
Pt      -0.00120916      -0.01608300      26.91518895        1       0.01172351       0.00882130       0.00421924
Pt       2.80979528      -0.01550858      26.91543618        1      -0.01156682       0.00770764       0.00346844
Pt       5.61546747      -0.01283081      26.91626652        1      -0.00003227      -0.00401579      -0.00686873
Pt       1.40383909       2.41364205      26.91595752        1      -0.00008361       0.01214234      -0.00299953
Pt       4.20846914       2.41573487      26.91538477        1       0.01585757       0.00507402       0.00215220
Pt       7.02130244       2.41630944      26.91507338        1      -0.01668436       0.00411198       0.00325922
Pt       2.81119209       4.84620728      26.91739341        1      -0.01722338       0.00986526      -0.00657186
Pt       5.61496779       4.84670900      26.91922653        1       0.00023480       0.00600746      -0.01555795
Pt       8.41897635       4.84637841      26.91727003        1       0.01555768       0.01282166      -0.00655520
N        9.82119401       4.87202761      30.75549321        0       0.00006392      -0.01018038      -0.03837072
H        9.82402340       3.92658619      30.35115688        0       0.00039682      -0.02469654       0.02048873
H        8.99926631       5.34864452      30.36054050        0       0.02622567       0.01663000       0.01292153
H       10.64896454       5.34857187      30.37286503        0      -0.02677308       0.01577390       0.01166437
