40
Lattice="8.421641763931781 0.0 0.0 4.2108208819658905 7.293355709136913 0.0 0.0 0.0 46.87624170604845" Properties=species:S:1:pos:R:3:tags:I:1:forces:R:3 charge=0 spin=0 energy=-206.4258754344857 free_energy=-206.4258754344857 stress="0.010521331802010536 2.9239715786388842e-06 3.2610365963137156e-08 2.9239715786388842e-06 0.010525032877922058 3.5936782296630554e-06 3.2610365963137156e-08 3.5936782296630554e-06 -3.079522866755724e-05" pbc="T T T"
Pt      -0.00000003       0.00000022      19.95723434        4       0.00033707      -0.00038958       0.01864537
Pt       2.80721396      -0.00000018      19.95723452        4      -0.00054491       0.00002558       0.01855919
Pt       5.61442778      -0.00000004      19.95723454        4      -0.00033108       0.00018995       0.01838909
Pt       1.40360719       2.43111838      19.95723440        4      -0.00012307      -0.00012017       0.01849830
Pt       4.21082079       2.43111832      19.95723449        4      -0.00019660       0.00027320       0.01761685
Pt       7.01803484       2.43111842      19.95723441        4      -0.00006094      -0.00021992       0.01765502
Pt       2.80721406       4.86223725      19.95723409        4       0.00017809       0.00029286       0.01892160
Pt       5.61442803       4.86223733      19.95723425        4       0.00025246       0.00041871       0.01829582
Pt       8.42164141       4.86223723      19.95723442        4      -0.00023833       0.00016562       0.01886668
Pt       1.40360730       0.81037260      22.29206788        3       0.00001451       0.00137065      -0.05323618
Pt       4.21082126       0.81037254      22.29206791        3      -0.00072403      -0.00103497      -0.05028818
Pt       7.01803479       0.81037259      22.29206783        3      -0.00003651      -0.00011313      -0.05091069
Pt       2.80721452       3.24149125      22.29206775        3      -0.00090531       0.00181464      -0.05403523
Pt       5.61442760       3.24149123      22.29206789        3      -0.00031052       0.00136539      -0.04592441
Pt       8.42164156       3.24149116      22.29206803        3       0.00110943       0.00101044      -0.05362089
Pt       4.21082093       5.67260998      22.29206800        3      -0.00149288       0.00050810      -0.05146039
Pt       7.01803487       5.67261039      22.29206775        3       0.00047407      -0.00020852      -0.05165120
Pt       9.82524824       5.67261062      22.29206803        3      -0.00032864       0.00000437      -0.05303291
Pt      -0.00000058       1.62074570      24.58417378        2      -0.00986419      -0.00614989       0.04373831
Pt       2.80721444       1.62074548      24.58417392        2       0.01398154      -0.00749742       0.04472007
Pt       5.61442778       1.62074537      24.58417373        2       0.00006526       0.01108485       0.03731672
Pt       1.40360636       4.05186440      24.58417384        2       0.00240613       0.00023732       0.02560252
Pt       4.21082088       4.05186399      24.58417380        2       0.00529010      -0.00175330       0.05214550
Pt       7.01803502       4.05186406      24.58417406        2      -0.00514225      -0.00208024       0.05028586
Pt       2.80721280       6.48298341      24.58417369        2       0.00776008      -0.00096543       0.03737541
Pt       5.61442796       6.48298324      24.58417387        2       0.00024229      -0.00426848       0.05778030
Pt       8.42164221       6.48298340      24.58417380        2      -0.00853539      -0.00154079       0.03792238
Pt       0.00109367      -0.00356499      26.92070315        1       0.00034597       0.00956345      -0.01994613
Pt       2.80792516      -0.00315570      26.92139294        1      -0.00030225       0.00972172      -0.02251124
Pt       5.61572757       0.00081571      26.91115055        1       0.00033994      -0.00135456       0.01664368
Pt       1.40435906       2.42597852      26.91112071        1      -0.00130758       0.00697686       0.01801183
Pt       4.21166912       2.43120730      26.92121445        1      -0.00058097      -0.00894940      -0.02407508
Pt       7.01881749       2.43176046      26.92032651        1      -0.00058334      -0.00938962      -0.02107346
Pt       2.80763807       4.85982093      26.91700761        1       0.01066062       0.00258076      -0.00339284
Pt       5.61518060       4.86100655      26.92266531        1       0.00000645      -0.00040942      -0.02823868
Pt       8.42311229       4.86071060      26.91631037        1      -0.01172024       0.00170761      -0.00157088
N        9.81972321       4.87884465      30.84398867        0      -0.00068495      -0.00835406       0.00918352
H        9.82410815       3.90377390      30.51816410        0       0.00189716      -0.00629472      -0.00094437
H        9.00133717       5.32581024      30.41049277        0       0.01133682       0.00755768      -0.00446502
H       10.65001423       5.32606891      30.43400799        0      -0.01268432       0.00422367      -0.00579604
