40
Lattice="8.421641763931781 0.0 0.0 4.2108208819658905 7.293355709136913 0.0 0.0 0.0 46.87624170604845" Properties=species:S:1:pos:R:3:tags:I:1:forces:R:3 charge=0 spin=0 energy=-206.42558551749352 free_energy=-206.42558551749352 stress="0.010512670502066612 3.216109007553314e-06 1.8838010191757348e-06 3.216109007553314e-06 0.0105332275852561 -3.1483991733693983e-06 1.8838010191757348e-06 -3.1483991733693983e-06 -3.249516521464102e-05" pbc="T T T"
Pt      -0.00000003       0.00000022      19.95723434        4       0.00024005      -0.00002455       0.01867083
Pt       2.80721396      -0.00000018      19.95723452        4      -0.00045933       0.00035329       0.01861047
Pt       5.61442778      -0.00000004      19.95723454        4      -0.00026710       0.00052627       0.01842501
Pt       1.40360719       2.43111838      19.95723440        4      -0.00013479       0.00034920       0.01848822
Pt       4.21082079       2.43111832      19.95723449        4      -0.00015095       0.00073300       0.01766971
Pt       7.01803484       2.43111842      19.95723441        4      -0.00014007       0.00021194       0.01754325
Pt       2.80721406       4.86223725      19.95723409        4       0.00014007       0.00066934       0.01885027
Pt       5.61442803       4.86223733      19.95723425        4       0.00034610       0.00071771       0.01827940
Pt       8.42164141       4.86223723      19.95723442        4      -0.00023396       0.00049260       0.01889969
Pt       1.40360730       0.81037260      22.29206788        3       0.00032892       0.00269468      -0.05403015
Pt       4.21082126       0.81037254      22.29206791        3      -0.00067037       0.00024244      -0.05076630
Pt       7.01803479       0.81037259      22.29206783        3       0.00032306       0.00165122      -0.05091434
Pt       2.80721452       3.24149125      22.29206775        3      -0.00075621       0.00315522      -0.05347717
Pt       5.61442760       3.24149123      22.29206789        3       0.00006041       0.00290951      -0.04573306
Pt       8.42164156       3.24149116      22.29206803        3       0.00115851       0.00193714      -0.05361637
Pt       4.21082093       5.67260998      22.29206800        3      -0.00103865       0.00187497      -0.05178191
Pt       7.01803487       5.67261039      22.29206775        3       0.00043003       0.00129727      -0.05176933
Pt       9.82524824       5.67261062      22.29206803        3      -0.00006456       0.00131749      -0.05209282
Pt      -0.00000058       1.62074570      24.58417378        2      -0.01119674      -0.01004188       0.04350837
Pt       2.80721444       1.62074548      24.58417392        2       0.01429175      -0.01029969       0.04396196
Pt       5.61442778       1.62074537      24.58417373        2      -0.00059505       0.00662616       0.03963558
Pt       1.40360636       4.05186440      24.58417384        2      -0.00015951      -0.00297156       0.02416814
Pt       4.21082088       4.05186399      24.58417380        2       0.00656039      -0.00648230       0.05179686
Pt       7.01803502       4.05186406      24.58417406        2      -0.00487536      -0.00584612       0.05222422
Pt       2.80721280       6.48298341      24.58417369        2       0.00666912      -0.00387747       0.03562451
Pt       5.61442796       6.48298324      24.58417387        2      -0.00051857      -0.00953067       0.05743324
Pt       8.42164221       6.48298340      24.58417380        2      -0.00794987      -0.00664648       0.03775917
Pt      -0.00003314      -0.00911576      26.92026660        1       0.00202151       0.01127107      -0.01844781
Pt       2.80734169      -0.00866398      26.92012943        1      -0.00074427       0.01086634      -0.01920518
Pt       5.61500324      -0.00492123      26.91171485        1       0.00136145       0.00293435       0.01505117
Pt       1.40338623       2.42112717      26.91081218        1       0.00045942       0.00567192       0.01873061
Pt       4.21113462       2.42538917      26.92198292        1       0.00029204      -0.00660960      -0.02623137
Pt       7.01796253       2.42620206      26.92071997        1      -0.00094759      -0.00730099      -0.02268938
Pt       2.80719172       4.85420845      26.91578670        1       0.01161607       0.00503232       0.00145027
Pt       5.61529997       4.85515088      26.92320280        1      -0.00178776       0.00237915      -0.02949676
Pt       8.42265282       4.85524736      26.91734841        1      -0.01281247       0.00365166      -0.00491269
N        9.83446080       4.85895035      30.84016623        0      -0.00899574       0.00156099       0.01360704
H        9.34955812       5.67865779      30.45299135        0       0.00560772       0.00756669      -0.00422819
H       10.77387540       4.85057341      30.42212324        0      -0.00753208      -0.00292853      -0.00567121
H        9.34367001       4.03265303      30.47496889        0       0.01012421      -0.00613438      -0.00532415
