40
Lattice="8.421641763931781 0.0 0.0 4.2108208819658905 7.293355709136913 0.0 0.0 0.0 46.87624170604845" Properties=species:S:1:pos:R:3:tags:I:1:forces:R:3 charge=0 spin=0 energy=-206.4244048686898 free_energy=-206.4244048686898 stress="0.010450774803757668 1.0798381481436081e-05 -6.517995188914938e-06 1.0798381481436081e-05 0.010481070727109909 -5.794341859655106e-07 -6.517995188914938e-06 -5.794341859655106e-07 -0.00012490860535763204" pbc="T T T"
Pt      -0.00000003       0.00000022      19.95723434        4      -0.00028022       0.00005186       0.01835796
Pt       2.80721396      -0.00000018      19.95723452        4      -0.00043462       0.00055135       0.01846356
Pt       5.61442778      -0.00000004      19.95723454        4      -0.00042593      -0.00004928       0.01836545
Pt       1.40360719       2.43111838      19.95723440        4      -0.00034146       0.00000403       0.01830871
Pt       4.21082079       2.43111832      19.95723449        4      -0.00059289       0.00028794       0.01808199
Pt       7.01803484       2.43111842      19.95723441        4       0.00000646      -0.00000737       0.01761144
Pt       2.80721406       4.86223725      19.95723409        4      -0.00022007       0.00021303       0.01881553
Pt       5.61442803       4.86223733      19.95723425        4       0.00006410       0.00067029       0.01809397
Pt       8.42164141       4.86223723      19.95723442        4      -0.00018160       0.00016126       0.01855625
Pt       1.40360730       0.81037260      22.29206788        3      -0.00079806       0.00149776      -0.05140157
Pt       4.21082126       0.81037254      22.29206791        3      -0.00000378      -0.00010103      -0.05113816
Pt       7.01803479       0.81037259      22.29206783        3      -0.00163567      -0.00048984      -0.05085243
Pt       2.80721452       3.24149125      22.29206775        3      -0.00079802       0.00219026      -0.05110687
Pt       5.61442760       3.24149123      22.29206789        3      -0.00161441       0.00252417      -0.04961557
Pt       8.42164156       3.24149116      22.29206803        3      -0.00006772       0.00195144      -0.05134217
Pt       4.21082093       5.67260998      22.29206800        3      -0.00117938       0.00064015      -0.05297087
Pt       7.01803487       5.67261039      22.29206775        3      -0.00025446      -0.00012477      -0.05283758
Pt       9.82524824       5.67261062      22.29206803        3      -0.00120449       0.00065289      -0.05254053
Pt      -0.00000058       1.62074570      24.58417378        2      -0.00035731      -0.00277838       0.03136707
Pt       2.80721444       1.62074548      24.58417392        2       0.00709862      -0.00410939       0.03184970
Pt       5.61442778       1.62074537      24.58417373        2       0.00217250       0.00009125       0.02393127
Pt       1.40360636       4.05186440      24.58417384        2       0.00604528      -0.00248951       0.02659823
Pt       4.21082088       4.05186399      24.58417380        2      -0.00056173      -0.00439540       0.03256916
Pt       7.01803502       4.05186406      24.58417406        2       0.00060383      -0.00940871       0.02777085
Pt       2.80721280       6.48298341      24.58417369        2       0.00460757      -0.00238448       0.03597976
Pt       5.61442796       6.48298324      24.58417387        2       0.00152602      -0.00075230       0.03279475
Pt       8.42164221       6.48298340      24.58417380        2      -0.00322475       0.00100366       0.03326431
Pt       0.00511344      -0.00349428      26.91652732        1      -0.01457497      -0.00170853      -0.00179081
Pt       2.80741761      -0.00100210      26.91674016        1       0.01574313      -0.01055386      -0.00352681
Pt       5.61736503      -0.00297054      26.91455532        1      -0.00144381      -0.00675929       0.00676514
Pt       1.40649170       2.42829921      26.91418104        1      -0.00375406       0.00302878       0.00919056
Pt       4.21463231       2.42662142      26.91559732        1      -0.00617646       0.00145378       0.00032462
Pt       7.02026811       2.42384736      26.91549565        1       0.00416611       0.01634298      -0.00033191
Pt       2.81059349       4.85817707      26.91661411        1      -0.00349567       0.00607172       0.00152807
Pt       5.61735214       4.85797407      26.91223416        1       0.00404568       0.00330541       0.00925778
Pt       8.42328087       4.85932241      26.91338559        1      -0.00248646       0.00306444       0.00209376
N        9.85935494       4.95893218      31.00594761        0      -0.00142981       0.00867502       0.01025137
H        9.59087764       5.76038941      30.42047180        0      -0.01754299       0.01091558      -0.00922650
H       10.88650778       4.97066085      31.04846164        0       0.01492180      -0.01574329       0.00095037
H        9.60247865       4.11778519      30.47277703        0       0.00407955      -0.00349354      -0.00245975
