40
Lattice="8.421641763931781 0.0 0.0 4.2108208819658905 7.293355709136913 0.0 0.0 0.0 46.87624170604845" Properties=species:S:1:pos:R:3:tags:I:1:forces:R:3 charge=0 spin=0 energy=-206.4244048686898 free_energy=-206.4244048686898 stress="0.010450421832501888 -1.0176798241445795e-05 5.4322108553606085e-06 -1.0176798241445795e-05 0.010484196245670319 5.229957196206669e-07 5.4322108553606085e-06 5.229957196206669e-07 -0.00012358730600681156" pbc="T T T"
Pt      -0.00000003       0.00000022      19.95723434        4       0.00033922       0.00026329       0.01837561
Pt       2.80721396      -0.00000018      19.95723452        4       0.00001831       0.00051523       0.01830922
Pt       5.61442778      -0.00000004      19.95723454        4       0.00000550      -0.00002346       0.01821700
Pt       1.40360719       2.43111838      19.95723440        4       0.00006505       0.00014977       0.01835881
Pt       4.21082079       2.43111832      19.95723449        4      -0.00004511       0.00047177       0.01774722
Pt       7.01803484       2.43111842      19.95723441        4       0.00051753      -0.00007747       0.01796066
Pt       2.80721406       4.86223725      19.95723409        4       0.00024623       0.00043372       0.01852389
Pt       5.61442803       4.86223733      19.95723425        4       0.00047248       0.00070579       0.01828184
Pt       8.42164141       4.86223723      19.95723442        4       0.00025941       0.00023773       0.01891155
Pt       1.40360730       0.81037260      22.29206788        3       0.00154228       0.00144591      -0.05136493
Pt       4.21082126       0.81037254      22.29206791        3       0.00165976      -0.00064413      -0.05078031
Pt       7.01803479       0.81037259      22.29206783        3      -0.00024405       0.00034812      -0.05130315
Pt       2.80721452       3.24149125      22.29206775        3       0.00048850       0.00285315      -0.05161770
Pt       5.61442760       3.24149123      22.29206789        3       0.00185151       0.00230098      -0.04958545
Pt       8.42164156       3.24149116      22.29206803        3       0.00131367       0.00116107      -0.05093897
Pt       4.21082093       5.67260998      22.29206800        3      -0.00019515       0.00076769      -0.05277855
Pt       7.01803487       5.67261039      22.29206775        3       0.00130914       0.00044406      -0.05297524
Pt       9.82524824       5.67261062      22.29206803        3       0.00099604       0.00077660      -0.05242918
Pt      -0.00000058       1.62074570      24.58417378        2      -0.00502709      -0.00303934       0.03086442
Pt       2.80721444       1.62074548      24.58417392        2       0.00168156      -0.00455526       0.03100454
Pt       5.61442778       1.62074537      24.58417373        2      -0.00183869      -0.00047214       0.02454035
Pt       1.40360636       4.05186440      24.58417384        2      -0.00478643      -0.00204636       0.02659807
Pt       4.21082088       4.05186399      24.58417380        2      -0.00023042      -0.00855871       0.02771894
Pt       7.01803502       4.05186406      24.58417406        2       0.00036969      -0.00462598       0.03208035
Pt       2.80721280       6.48298341      24.58417369        2       0.00138567       0.00290202       0.03309415
Pt       5.61442796       6.48298324      24.58417387        2      -0.00397309      -0.00243188       0.03362459
Pt       8.42164221       6.48298340      24.58417380        2      -0.00728955      -0.00470759       0.03764522
Pt      -0.00049006      -0.00145610      26.91672807        1      -0.01419065      -0.01044182      -0.00367325
Pt       2.80171191      -0.00341459      26.91658171        1       0.01579907      -0.00021519      -0.00249766
Pt       5.61138760      -0.00353080      26.91436265        1       0.00409894      -0.00510833       0.00586086
Pt       1.39972387       2.42819492      26.91425755        1       0.00398516       0.00244851       0.01051939
Pt       4.20818069       2.42375879      26.91545225        1      -0.00420523       0.01487119      -0.00019608
Pt       7.01400165       2.42639630      26.91547730        1       0.00600818       0.00246305       0.00085856
Pt       2.80565878       4.85860132      26.91319244        1       0.00071930       0.00067094       0.00305421
Pt       5.61180540       4.85779901      26.91246648        1      -0.00660125       0.00349616       0.00883925
Pt       8.41804614       4.85788622      26.91709244        1       0.00338979       0.00682904      -0.00023946
N        9.79264446       4.96157644      31.01022316        0       0.00062746       0.00834309       0.00933356
H       10.05906835       5.76990012      30.43318227        0       0.01807378       0.01047834      -0.00869720
H       10.05523339       4.12680883      30.46989682        0      -0.00435570      -0.00184754      -0.00225886
H        8.76527230       4.96776654      31.04929423        0      -0.01424084      -0.01658208       0.00101342
