40
Lattice="8.421641763931781 0.0 0.0 4.2108208819658905 7.293355709136913 0.0 0.0 0.0 46.87624170604845" Properties=species:S:1:pos:R:3:tags:I:1:forces:R:3 charge=0 spin=0 energy=-206.4211547466195 free_energy=-206.4211547466195 stress="0.010377466678619385 9.952466825779993e-06 -1.7430116940886364e-06 9.952466825779993e-06 0.010540604591369629 -1.650209742365405e-05 -1.7430116940886364e-06 -1.650209742365405e-05 -0.00017751683481037617" pbc="T T T"
Pt      -0.00000003       0.00000022      19.95723434        4      -0.00023283       0.00286869       0.01840476
Pt       2.80721396      -0.00000018      19.95723452        4      -0.00084122       0.00319100       0.01842232
Pt       5.61442778      -0.00000004      19.95723454        4      -0.00064912       0.00295774       0.01838188
Pt       1.40360719       2.43111838      19.95723440        4      -0.00054511       0.00289291       0.01861825
Pt       4.21082079       2.43111832      19.95723449        4      -0.00036455       0.00308278       0.01729709
Pt       7.01803484       2.43111842      19.95723441        4      -0.00049611       0.00270940       0.01724531
Pt       2.80721406       4.86223725      19.95723409        4      -0.00051396       0.00307177       0.01881763
Pt       5.61442803       4.86223733      19.95723425        4      -0.00007913       0.00342560       0.01845758
Pt       8.42164141       4.86223723      19.95723442        4      -0.00024792       0.00302101       0.01875856
Pt       1.40360730       0.81037260      22.29206788        3       0.00030669       0.01199818      -0.05107700
Pt       4.21082126       0.81037254      22.29206791        3      -0.00000710       0.01040673      -0.05099135
Pt       7.01803479       0.81037259      22.29206783        3      -0.00038506       0.01124798      -0.05145260
Pt       2.80721452       3.24149125      22.29206775        3       0.00028416       0.01358064      -0.05138384
Pt       5.61442760       3.24149123      22.29206789        3      -0.00002791       0.01416367      -0.04807884
Pt       8.42164156       3.24149116      22.29206803        3       0.00010377       0.01256907      -0.05105276
Pt       4.21082093       5.67260998      22.29206800        3      -0.00041997       0.01170383      -0.05405675
Pt       7.01803487       5.67261039      22.29206775        3      -0.00044788       0.01100662      -0.05428550
Pt       9.82524824       5.67261062      22.29206803        3      -0.00034603       0.01175171      -0.05050524
Pt      -0.00000058       1.62074570      24.58417378        2       0.00398008      -0.03398134       0.02156183
Pt       2.80721444       1.62074548      24.58417392        2       0.00057711      -0.03382460       0.02237790
Pt       5.61442778       1.62074537      24.58417373        2       0.00153921      -0.03371574       0.02135569
Pt       1.40360636       4.05186440      24.58417384        2       0.00165816      -0.03741568       0.01379830
Pt       4.21082088       4.05186399      24.58417380        2       0.00027317      -0.03562529       0.02623180
Pt       7.01803502       4.05186406      24.58417406        2       0.00229064      -0.03556321       0.02637255
Pt       2.80721280       6.48298341      24.58417369        2       0.00003640      -0.03182504       0.02825059
Pt       5.61442796       6.48298324      24.58417387        2       0.00045194      -0.03340776       0.03398892
Pt       8.42164221       6.48298340      24.58417380        2       0.00033914      -0.03325905       0.02866493
Pt       0.00092348      -0.04528578      26.91501900        1       0.00351530       0.00503349       0.00760189
Pt       2.80896551      -0.04463144      26.91509622        1      -0.00519600       0.00488582       0.00720172
Pt       5.61602087      -0.04561842      26.91721817        1      -0.00038282       0.01858096      -0.00432410
Pt       1.40411361       2.38481138      26.91650083        1       0.00024195       0.01234872       0.00141696
Pt       4.20981990       2.38167585      26.91391311        1       0.01427426       0.03088920       0.01310223
Pt       7.02115863       2.38232483      26.91345989        1      -0.01602367       0.02947998       0.01420709
Pt       2.80817441       4.81499680      26.91387220        1       0.01185657       0.02279466       0.01237367
Pt       5.61557284       4.81461266      26.91348164        1      -0.00136170       0.02285613       0.00682890
Pt       8.42287880       4.81572830      26.91411010        1      -0.01287723       0.02310254       0.01172291
N        9.82506092       4.86662685      30.76938529        0       0.00028405      -0.00157517       0.03982635
H       10.64675275       4.34720667      30.43582696        0       0.00775821       0.00976136      -0.01449832
H        8.99867323       4.34602502      30.44952230        0      -0.00810638       0.00992756      -0.01509675
H        9.82039028       5.76649969      30.27233439        0      -0.00021892      -0.01511675      -0.00448481
