40
Lattice="8.421641763931781 0.0 0.0 4.2108208819658905 7.293355709136913 0.0 0.0 0.0 46.87624170604845" Properties=species:S:1:pos:R:3:tags:I:1:forces:R:3 charge=0 spin=0 energy=-206.42544628104332 free_energy=-206.42544628104332 stress="0.010499758645892143 3.5194957490602974e-06 -1.497403559369559e-06 3.5194957490602974e-06 0.010546732693910599 -1.0730464055086486e-05 -1.497403559369559e-06 -1.0730464055086486e-05 -3.3885997254401445e-05" pbc="T T T"
Pt      -0.00000003       0.00000022      19.95723434        4       0.00014418       0.00051790       0.01874484
Pt       2.80721396      -0.00000018      19.95723452        4      -0.00039732       0.00086048       0.01863971
Pt       5.61442778      -0.00000004      19.95723454        4      -0.00035035       0.00102435       0.01841842
Pt       1.40360719       2.43111838      19.95723440        4      -0.00018644       0.00101699       0.01851178
Pt       4.21082079       2.43111832      19.95723449        4      -0.00006723       0.00142179       0.01755712
Pt       7.01803484       2.43111842      19.95723441        4      -0.00025679       0.00086304       0.01754317
Pt       2.80721406       4.86223725      19.95723409        4       0.00009239       0.00125564       0.01885688
Pt       5.61442803       4.86223733      19.95723425        4       0.00030193       0.00118325       0.01829297
Pt       8.42164141       4.86223723      19.95723442        4      -0.00019275       0.00110766       0.01884085
Pt       1.40360730       0.81037260      22.29206788        3       0.00059297       0.00479955      -0.05458931
Pt       4.21082126       0.81037254      22.29206791        3      -0.00070465       0.00282325      -0.05105110
Pt       7.01803479       0.81037259      22.29206783        3       0.00061291       0.00388272      -0.05150104
Pt       2.80721452       3.24149125      22.29206775        3      -0.00034420       0.00502811      -0.05341423
Pt       5.61442760       3.24149123      22.29206789        3       0.00015720       0.00502966      -0.04563675
Pt       8.42164156       3.24149116      22.29206803        3       0.00144167       0.00404151      -0.05310053
Pt       4.21082093       5.67260998      22.29206800        3      -0.00067189       0.00421229      -0.05206219
Pt       7.01803487       5.67261039      22.29206775        3       0.00023485       0.00347087      -0.05211145
Pt       9.82524824       5.67261062      22.29206803        3       0.00003807       0.00345393      -0.05071976
Pt      -0.00000058       1.62074570      24.58417378        2      -0.01208241      -0.01549926       0.04229847
Pt       2.80721444       1.62074548      24.58417392        2       0.01435408      -0.01589799       0.04363358
Pt       5.61442778       1.62074537      24.58417373        2      -0.00053742      -0.00022566       0.04196092
Pt       1.40360636       4.05186440      24.58417384        2      -0.00029073      -0.00869689       0.02409873
Pt       4.21082088       4.05186399      24.58417380        2       0.00504939      -0.01258305       0.05287701
Pt       7.01803502       4.05186406      24.58417406        2      -0.00527759      -0.01246005       0.05264260
Pt       2.80721280       6.48298341      24.58417369        2       0.00519499      -0.01122294       0.03584237
Pt       5.61442796       6.48298324      24.58417387        2      -0.00067049      -0.01657395       0.05643980
Pt       8.42164221       6.48298340      24.58417380        2      -0.00722275      -0.01290463       0.03680494
Pt      -0.00072705      -0.01785124      26.91923368        1       0.00345840       0.01379314      -0.01560908
Pt       2.80742063      -0.01765378      26.91957181        1      -0.00227267       0.01466997      -0.01696906
Pt       5.61443887      -0.01377378      26.91235501        1       0.00073147       0.00716222       0.01370092
Pt       1.40299311       2.41280596      26.91062818        1      -0.00079480       0.00686559       0.01838803
Pt       4.21088034       2.41627848      26.92242947        1       0.00034195      -0.00289184      -0.02724713
Pt       7.01736898       2.41714462      26.92139647        1      -0.00078589      -0.00411804      -0.02371881
Pt       2.80638803       4.84549378      26.91664681        1       0.01248991       0.00803165      -0.00199917
Pt       5.61388831       4.84612782      26.92319024        1       0.00065286       0.00659266      -0.03025609
Pt       8.42177859       4.84639774      26.91729197        1      -0.01289545       0.00714231      -0.00357938
N        9.83035355       4.84217755      30.82802051        0       0.00091073       0.01143174       0.01543609
H        9.82608905       5.81944502      30.50917040        0      -0.00230174       0.00848742      -0.00188787
H       10.65005347       4.39852180      30.39387925        0      -0.01095765      -0.01051520      -0.00640499
H        9.00074753       4.39721649      30.41447687        0       0.01246137      -0.00658013      -0.00767140
