40
Lattice="8.421641763931781 0.0 0.0 4.2108208819658905 7.293355709136913 0.0 0.0 0.0 46.87624170604845" Properties=species:S:1:pos:R:3:tags:I:1:forces:R:3 charge=0 spin=0 energy=-206.42434764823082 free_energy=-206.42434764823082 stress="0.010458137840032578 7.107885267032543e-06 -2.407570036666584e-06 7.107885267032543e-06 0.010513504967093468 -9.329819476988632e-06 -2.407570036666584e-06 -9.329819476988632e-06 -9.872324153548107e-05" pbc="T T T"
Pt      -0.00000003       0.00000022      19.95723434        4       0.00028860       0.00126112       0.01856522
Pt       2.80721396      -0.00000018      19.95723452        4      -0.00085412       0.00158236       0.01849762
Pt       5.61442778      -0.00000004      19.95723454        4      -0.00052201       0.00157360       0.01856630
Pt       1.40360719       2.43111838      19.95723440        4      -0.00039966       0.00148354       0.01870237
Pt       4.21082079       2.43111832      19.95723449        4       0.00003619       0.00181834       0.01719554
Pt       7.01803484       2.43111842      19.95723441        4      -0.00059224       0.00140705       0.01729688
Pt       2.80721406       4.86223725      19.95723409        4      -0.00035979       0.00165467       0.01882349
Pt       5.61442803       4.86223733      19.95723425        4       0.00003150       0.00183249       0.01851681
Pt       8.42164141       4.86223723      19.95723442        4       0.00000933       0.00163241       0.01886653
Pt       1.40360730       0.81037260      22.29206788        3       0.00026291       0.00709761      -0.05165425
Pt       4.21082126       0.81037254      22.29206791        3      -0.00022536       0.00532330      -0.05183277
Pt       7.01803479       0.81037259      22.29206783        3      -0.00060785       0.00574034      -0.05284123
Pt       2.80721452       3.24149125      22.29206775        3      -0.00025879       0.00759977      -0.05364574
Pt       5.61442760       3.24149123      22.29206789        3      -0.00006905       0.00762502      -0.04566697
Pt       8.42164156       3.24149116      22.29206803        3       0.00068813       0.00680071      -0.05209629
Pt       4.21082093       5.67260998      22.29206800        3      -0.00114739       0.00649979      -0.05282863
Pt       7.01803487       5.67261039      22.29206775        3      -0.00014009       0.00572745      -0.05333187
Pt       9.82524824       5.67261062      22.29206803        3      -0.00030116       0.00612052      -0.04981881
Pt      -0.00000058       1.62074570      24.58417378        2       0.00061724      -0.01759022       0.02938835
Pt       2.80721444       1.62074548      24.58417392        2       0.00265852      -0.01962905       0.02994864
Pt       5.61442778       1.62074537      24.58417373        2       0.00196214      -0.01482183       0.03207837
Pt       1.40360636       4.05186440      24.58417384        2       0.00017042      -0.01714736       0.03381674
Pt       4.21082088       4.05186399      24.58417380        2       0.00422587      -0.01737468       0.03679638
Pt       7.01803502       4.05186406      24.58417406        2      -0.00040285      -0.01681703       0.03821737
Pt       2.80721280       6.48298341      24.58417369        2      -0.00283252      -0.01929515       0.03137132
Pt       5.61442796       6.48298324      24.58417387        2       0.00077372      -0.02239680       0.04282368
Pt       8.42164221       6.48298340      24.58417380        2       0.00215298      -0.02282640       0.03569702
Pt      -0.00084014      -0.02555220      26.91438054        1       0.01315855       0.01004292       0.00676383
Pt       2.81057654      -0.02540060      26.91553814        1      -0.01282562       0.01105522       0.00347298
Pt       5.61587801      -0.02290642      26.91646655        1      -0.00072424       0.00300486      -0.00681188
Pt       1.40432399       2.40432361      26.91628194        1      -0.00141174       0.01312009      -0.00416140
Pt       4.20894983       2.40548270      26.91527890        1       0.01796087       0.01014267       0.00367692
Pt       7.02187709       2.40667470      26.91545904        1      -0.01793695       0.00692268       0.00293070
Pt       2.81137002       4.83641168      26.91614547        1      -0.01444332       0.01326485      -0.00356456
Pt       5.61549182       4.83673550      26.91938694        1      -0.00233347       0.01109666      -0.01563000
Pt       8.41951576       4.83663283      26.91792597        1       0.01366155       0.01625961      -0.00585719
N        9.84036736       4.87240278      30.74377313        0       0.00695585      -0.00008522      -0.03643391
H        8.86908408       4.87800533      30.40391413        0       0.02485748       0.00138635       0.00880875
H       10.29495738       5.70187691      30.33997332        0      -0.01777616       0.02340172       0.01731449
H       10.29603242       4.05990698      30.30792611        0      -0.01430783      -0.02449395       0.01803930
