40
Lattice="8.421641763931781 0.0 0.0 4.2108208819658905 7.293355709136913 0.0 0.0 0.0 46.87624170604845" Properties=species:S:1:pos:R:3:tags:I:1:forces:R:3 charge=0 spin=0 energy=-206.4243514629281 free_energy=-206.4243514629281 stress="0.010458122938871384 7.112030289135873e-06 -2.423838395770872e-06 7.112030289135873e-06 0.010513528250157833 -9.336676157545298e-06 -2.423838395770872e-06 -9.336676157545298e-06 -9.873543604044244e-05" pbc="T T T"
Pt      -0.00000003       0.00000022      19.95723434        4       0.00028852       0.00126098       0.01856503
Pt       2.80721396      -0.00000018      19.95723452        4      -0.00085418       0.00158239       0.01849757
Pt       5.61442778      -0.00000004      19.95723454        4      -0.00052192       0.00157361       0.01856636
Pt       1.40360719       2.43111838      19.95723440        4      -0.00039981       0.00148356       0.01870232
Pt       4.21082079       2.43111832      19.95723449        4       0.00003628       0.00181829       0.01719535
Pt       7.01803484       2.43111842      19.95723441        4      -0.00059232       0.00140700       0.01729679
Pt       2.80721406       4.86223725      19.95723409        4      -0.00035980       0.00165478       0.01882351
Pt       5.61442803       4.86223733      19.95723425        4       0.00003152       0.00183244       0.01851676
Pt       8.42164141       4.86223723      19.95723442        4       0.00000925       0.00163244       0.01886649
Pt       1.40360730       0.81037260      22.29206788        3       0.00026306       0.00709746      -0.05165474
Pt       4.21082126       0.81037254      22.29206791        3      -0.00022554       0.00532274      -0.05183239
Pt       7.01803479       0.81037259      22.29206783        3      -0.00060778       0.00573997      -0.05284067
Pt       2.80721452       3.24149125      22.29206775        3      -0.00025878       0.00759970      -0.05364641
Pt       5.61442760       3.24149123      22.29206789        3      -0.00006881       0.00762527      -0.04566658
Pt       8.42164156       3.24149116      22.29206803        3       0.00068870       0.00680069      -0.05209630
Pt       4.21082093       5.67260998      22.29206800        3      -0.00114722       0.00649959      -0.05282866
Pt       7.01803487       5.67261039      22.29206775        3      -0.00013993       0.00572742      -0.05333241
Pt       9.82524824       5.67261062      22.29206803        3      -0.00030096       0.00612024      -0.04981871
Pt      -0.00000058       1.62074570      24.58417378        2       0.00061297      -0.01759023       0.02938759
Pt       2.80721444       1.62074548      24.58417392        2       0.00266076      -0.01962979       0.02994542
Pt       5.61442778       1.62074537      24.58417373        2       0.00196401      -0.01482082       0.03207885
Pt       1.40360636       4.05186440      24.58417384        2       0.00017028      -0.01714724       0.03381116
Pt       4.21082088       4.05186399      24.58417380        2       0.00422767      -0.01737549       0.03679288
Pt       7.01803502       4.05186406      24.58417406        2      -0.00040473      -0.01681918       0.03821681
Pt       2.80721280       6.48298341      24.58417369        2      -0.00283274      -0.01929243       0.03137018
Pt       5.61442796       6.48298324      24.58417387        2       0.00077394      -0.02239707       0.04282228
Pt       8.42164221       6.48298340      24.58417380        2       0.00215319      -0.02282406       0.03569452
Pt      -0.00083967      -0.02555161      26.91438144        1       0.01315432       0.01004266       0.00676444
Pt       2.81057602      -0.02540025      26.91553832        1      -0.01282190       0.01105576       0.00347399
Pt       5.61587796      -0.02290555      26.91646486        1      -0.00072456       0.00300344      -0.00681103
Pt       1.40432398       2.40432312      26.91628081        1      -0.00141202       0.01312399      -0.00415332
Pt       4.20895052       2.40548302      26.91527927        1       0.01796066       0.01014165       0.00367798
Pt       7.02187661       2.40667506      26.91545983        1      -0.01793454       0.00692176       0.00292347
Pt       2.81137028       4.83641178      26.91614397        1      -0.01444455       0.01326451      -0.00355756
Pt       5.61549194       4.83673603      26.91938816        1      -0.00233532       0.01109529      -0.01562958
Pt       8.41951524       4.83663300      26.91792488        1       0.01366175       0.01625957      -0.00584937
N        9.84036677       4.87240186      30.74375782        0       0.00707316      -0.00002946      -0.03644163
H       10.29496028       5.70187742      30.33996031        0      -0.01781889       0.02332733       0.01734452
H       10.29603214       4.05990476      30.30791202        0      -0.01433442      -0.02446596       0.01804546
H        8.86908427       4.87800784      30.40390103        0       0.02481053       0.00137706       0.00877950
