40
Lattice="8.421641763931781 0.0 0.0 4.2108208819658905 7.293355709136913 0.0 0.0 0.0 46.87624170604845" Properties=species:S:1:pos:R:3:tags:I:1:forces:R:3 charge=0 spin=0 energy=-206.4195277782357 free_energy=-206.4195277782357 stress="0.010374203324317932 2.5405019187019207e-05 1.494738353358116e-05 2.5405019187019207e-05 0.010559081099927425 -1.536173658678308e-05 1.494738353358116e-05 -1.536173658678308e-05 -0.00017524577560834587" pbc="T T T"
Pt      -0.00000003       0.00000022      19.95723434        4      -0.00079453       0.00294715       0.01848157
Pt       2.80721396      -0.00000018      19.95723452        4      -0.00137908       0.00342116       0.01840218
Pt       5.61442778      -0.00000004      19.95723454        4      -0.00124282       0.00284232       0.01821903
Pt       1.40360719       2.43111838      19.95723440        4      -0.00106493       0.00291764       0.01842592
Pt       4.21082079       2.43111832      19.95723449        4      -0.00132181       0.00318084       0.01743628
Pt       7.01803484       2.43111842      19.95723441        4      -0.00067889       0.00283124       0.01748059
Pt       2.80721406       4.86223725      19.95723409        4      -0.00102405       0.00322850       0.01854452
Pt       5.61442803       4.86223733      19.95723425        4      -0.00083681       0.00363017       0.01835631
Pt       8.42164141       4.86223723      19.95723442        4      -0.00075796       0.00320029       0.01886884
Pt       1.40360730       0.81037260      22.29206788        3      -0.00238081       0.01320468      -0.05064376
Pt       4.21082126       0.81037254      22.29206791        3      -0.00207844       0.01120854      -0.05068021
Pt       7.01803479       0.81037259      22.29206783        3      -0.00359930       0.01243742      -0.05263599
Pt       2.80721452       3.24149125      22.29206775        3      -0.00278174       0.01478346      -0.05093225
Pt       5.61442760       3.24149123      22.29206789        3      -0.00161099       0.01450437      -0.04877975
Pt       8.42164156       3.24149116      22.29206803        3      -0.00242955       0.01337287      -0.05096935
Pt       4.21082093       5.67260998      22.29206800        3      -0.00373497       0.01275388      -0.05269448
Pt       7.01803487       5.67261039      22.29206775        3      -0.00273607       0.01211216      -0.05419233
Pt       9.82524824       5.67261062      22.29206803        3      -0.00281565       0.01292273      -0.05126360
Pt      -0.00000058       1.62074570      24.58417378        2       0.01028321      -0.03790338       0.02884716
Pt       2.80721444       1.62074548      24.58417392        2       0.01179245      -0.03766785       0.02860026
Pt       5.61442778       1.62074537      24.58417373        2       0.00893902      -0.03462423       0.02414130
Pt       1.40360636       4.05186440      24.58417384        2       0.00744987      -0.04060624       0.00773325
Pt       4.21082088       4.05186399      24.58417380        2       0.00904160      -0.04052375       0.02467491
Pt       7.01803502       4.05186406      24.58417406        2       0.01257296      -0.03874343       0.03009096
Pt       2.80721280       6.48298341      24.58417369        2       0.01420165      -0.03260816       0.02260066
Pt       5.61442796       6.48298324      24.58417387        2       0.00769418      -0.03394284       0.03407948
Pt       8.42164221       6.48298340      24.58417380        2       0.00454480      -0.03652777       0.02412209
Pt       0.01091803      -0.05014370      26.91703871        1       0.00072042       0.02031296      -0.00209170
Pt       2.81883065      -0.04984680      26.91589802        1      -0.01399133       0.02190505       0.00348258
Pt       5.62596558      -0.05159411      26.91459986        1      -0.00717394       0.04014586       0.01021959
Pt       1.41406254       2.38299578      26.91541267        1      -0.00833887      -0.00246659       0.00750787
Pt       4.22069262       2.37930747      26.91572936        1       0.00152107       0.02390077       0.00251000
Pt       7.02949968       2.37895257      26.91472639        1      -0.01079113       0.02934731       0.00647305
Pt       2.81530822       4.81172337      26.91337964        1       0.02542174       0.01971030       0.01120489
Pt       5.62440611       4.81206362      26.91242854        1      -0.00566373       0.01924699       0.01142344
Pt       8.43431665       4.81285254      26.91508808        1      -0.03366391       0.01545984       0.01530564
N        9.90084011       4.90113956      30.81355130        0      -0.01460524       0.00318423       0.01138046
H       10.25482452       4.08143908      30.30272111        0       0.00895154       0.03328413      -0.00115833
H        8.88074240       4.90379089      30.68642272        0      -0.01268058      -0.00695688       0.00064565
H       10.25496151       5.73216678      30.32165161        0       0.01704240      -0.02942579      -0.00321681
