40
Lattice="8.421641763931781 0.0 0.0 4.2108208819658905 7.293355709136913 0.0 0.0 0.0 46.87624170604845" Properties=species:S:1:pos:R:3:tags:I:1:forces:R:3 charge=0 spin=0 energy=-206.42558551749352 free_energy=-206.42558551749352 stress="0.010512648150324821 3.2010473205446033e-06 1.8894864979301929e-06 3.2010473205446033e-06 0.010533222928643227 -3.163082283208496e-06 1.8894864979301929e-06 -3.163082283208496e-06 -3.2502015528734773e-05" pbc="T T T"
Pt      -0.00000003       0.00000022      19.95723434        4       0.00024012      -0.00002488       0.01867094
Pt       2.80721396      -0.00000018      19.95723452        4      -0.00045926       0.00035310       0.01861078
Pt       5.61442778      -0.00000004      19.95723454        4      -0.00026717       0.00052617       0.01842503
Pt       1.40360719       2.43111838      19.95723440        4      -0.00013485       0.00034925       0.01848820
Pt       4.21082079       2.43111832      19.95723449        4      -0.00015075       0.00073302       0.01766988
Pt       7.01803484       2.43111842      19.95723441        4      -0.00013990       0.00021187       0.01754338
Pt       2.80721406       4.86223725      19.95723409        4       0.00014014       0.00066928       0.01885014
Pt       5.61442803       4.86223733      19.95723425        4       0.00034605       0.00071776       0.01827951
Pt       8.42164141       4.86223723      19.95723442        4      -0.00023378       0.00049243       0.01889980
Pt       1.40360730       0.81037260      22.29206788        3       0.00032947       0.00269441      -0.05403033
Pt       4.21082126       0.81037254      22.29206791        3      -0.00067087       0.00024162      -0.05076589
Pt       7.01803479       0.81037259      22.29206783        3       0.00032303       0.00165068      -0.05091353
Pt       2.80721452       3.24149125      22.29206775        3      -0.00075637       0.00315468      -0.05347664
Pt       5.61442760       3.24149123      22.29206789        3       0.00006039       0.00290902      -0.04573354
Pt       8.42164156       3.24149116      22.29206803        3       0.00115913       0.00193660      -0.05361553
Pt       4.21082093       5.67260998      22.29206800        3      -0.00103831       0.00187491      -0.05178216
Pt       7.01803487       5.67261039      22.29206775        3       0.00042995       0.00129699      -0.05176989
Pt       9.82524824       5.67261062      22.29206803        3      -0.00006467       0.00131703      -0.05209327
Pt      -0.00000058       1.62074570      24.58417378        2      -0.01120070      -0.01004062       0.04350722
Pt       2.80721444       1.62074548      24.58417392        2       0.01429384      -0.01029923       0.04395895
Pt       5.61442778       1.62074537      24.58417373        2      -0.00059385       0.00662833       0.03963925
Pt       1.40360636       4.05186440      24.58417384        2      -0.00016172      -0.00296950       0.02416212
Pt       4.21082088       4.05186399      24.58417380        2       0.00656261      -0.00648199       0.05179434
Pt       7.01803502       4.05186406      24.58417406        2      -0.00487642      -0.00584656       0.05222722
Pt       2.80721280       6.48298341      24.58417369        2       0.00666877      -0.00387375       0.03562134
Pt       5.61442796       6.48298324      24.58417387        2      -0.00051891      -0.00952921       0.05743240
Pt       8.42164221       6.48298340      24.58417380        2      -0.00795019      -0.00664486       0.03775998
Pt      -0.00003364      -0.00911407      26.92026744        1       0.00202155       0.01127063      -0.01844743
Pt       2.80734120      -0.00866187      26.92013047        1      -0.00074131       0.01086346      -0.01920582
Pt       5.61500270      -0.00491974      26.91171474        1       0.00135830       0.00293765       0.01505119
Pt       1.40338553       2.42112876      26.91081099        1       0.00046030       0.00567143       0.01874151
Pt       4.21113399       2.42539139      26.92198311        1       0.00029648      -0.00661315      -0.02623237
Pt       7.01796232       2.42620373      26.92072074        1      -0.00095146      -0.00730049      -0.02269659
Pt       2.80719114       4.85421023      26.91578575        1       0.01161914       0.00503068       0.00145933
Pt       5.61529982       4.85515309      26.92320280        1      -0.00178457       0.00237385      -0.02949809
Pt       8.42265328       4.85524897      26.91734833        1      -0.01281710       0.00365406      -0.00491279
N        9.83446266       4.85894119      30.84017709        0      -0.00904903       0.00165236       0.01360827
H        9.34367527       4.03264601      30.47497133        0       0.01011140      -0.00616983      -0.00533784
H        9.34955470       5.67865087      30.45300803        0       0.00563724       0.00751792      -0.00420060
H       10.77387606       4.85057391      30.42213395        0      -0.00749633      -0.00293494      -0.00568822
