40
Lattice="8.421641763931781 0.0 0.0 4.2108208819658905 7.293355709136913 0.0 0.0 0.0 46.87624170604845" Properties=species:S:1:pos:R:3:tags:I:1:forces:R:3 charge=0 spin=0 energy=-206.41990161856774 free_energy=-206.41990161856774 stress="0.010339529253542423 9.255202712665778e-06 -4.221388394398673e-07 9.255202712665778e-06 0.010457937605679035 -1.1821545740531292e-05 -4.221388394398673e-07 -1.1821545740531292e-05 -0.0002602689201012254" pbc="T T T"
Pt      -0.00000003       0.00000022      19.95723434        4      -0.00005830       0.00216995       0.01843396
Pt       2.80721396      -0.00000018      19.95723452        4      -0.00100342       0.00255776       0.01850529
Pt       5.61442778      -0.00000004      19.95723454        4      -0.00060306       0.00211347       0.01817978
Pt       1.40360719       2.43111838      19.95723440        4      -0.00051605       0.00229743       0.01860451
Pt       4.21082079       2.43111832      19.95723449        4      -0.00022416       0.00244073       0.01730655
Pt       7.01803484       2.43111842      19.95723441        4      -0.00054469       0.00215261       0.01723390
Pt       2.80721406       4.86223725      19.95723409        4      -0.00073694       0.00259742       0.01874178
Pt       5.61442803       4.86223733      19.95723425        4      -0.00012129       0.00309068       0.01826823
Pt       8.42164141       4.86223723      19.95723442        4       0.00001619       0.00261848       0.01866804
Pt       1.40360730       0.81037260      22.29206788        3       0.00005778       0.00980560      -0.04929063
Pt       4.21082126       0.81037254      22.29206791        3       0.00007460       0.00841391      -0.05109569
Pt       7.01803479       0.81037259      22.29206783        3      -0.00069305       0.00912652      -0.05166991
Pt       2.80721452       3.24149125      22.29206775        3       0.00034668       0.01131929      -0.05148513
Pt       5.61442760       3.24149123      22.29206789        3      -0.00021802       0.01199946      -0.05013176
Pt       8.42164156       3.24149116      22.29206803        3      -0.00061789       0.01022966      -0.05136590
Pt       4.21082093       5.67260998      22.29206800        3      -0.00056549       0.00923802      -0.05387467
Pt       7.01803487       5.67261039      22.29206775        3      -0.00063722       0.00850066      -0.05412677
Pt       9.82524824       5.67261062      22.29206803        3      -0.00055382       0.00954191      -0.04906312
Pt      -0.00000058       1.62074570      24.58417378        2       0.01008560      -0.03119403       0.01718823
Pt       2.80721444       1.62074548      24.58417392        2      -0.00415966      -0.03061819       0.01872756
Pt       5.61442778       1.62074537      24.58417373        2       0.00171290      -0.02908952       0.01431532
Pt       1.40360636       4.05186440      24.58417384        2       0.00293508      -0.02830387       0.00704070
Pt       4.21082088       4.05186399      24.58417380        2      -0.00398350      -0.03089315       0.00656369
Pt       7.01803502       4.05186406      24.58417406        2       0.00683691      -0.03053409       0.00595690
Pt       2.80721280       6.48298341      24.58417369        2       0.00028127      -0.02711295       0.01778651
Pt       5.61442796       6.48298324      24.58417387        2       0.00126743      -0.01819442       0.02264648
Pt       8.42164221       6.48298340      24.58417380        2       0.00065839      -0.02804157       0.01846935
Pt      -0.00025398      -0.03824768      26.91366462        1       0.01633913       0.02311232       0.01228103
Pt       2.81114795      -0.03748786      26.91387182        1      -0.01750141       0.02234460       0.01086619
Pt       5.61661362      -0.03886975      26.91427665        1      -0.00089094       0.03176083       0.00726277
Pt       1.40474749       2.39785132      26.91564523        1       0.00069016      -0.01961674       0.00204512
Pt       4.20862454       2.39208382      26.91036613        1       0.02416195       0.01302704       0.02529317
Pt       7.02362467       2.39265441      26.90961306        1      -0.02719797       0.01227382       0.02771135
Pt       2.81083964       4.82396241      26.91353465        1      -0.00150071       0.02087393       0.01403446
Pt       5.61623550       4.82449889      26.90625007        1      -0.00159185       0.01621666       0.04142567
Pt       8.42192705       4.82461465      26.91316297        1      -0.00113162       0.02202246       0.01496726
N        9.82537945       4.74427018      30.73422436        0      -0.00036145       0.00771185       0.02505489
H       10.64907717       4.19357391      30.46149909        0       0.00808403      -0.01643066      -0.00638287
H        9.00068034       4.19061404      30.47058319        0      -0.00847894      -0.01730852      -0.00660147
H        9.82052704       5.57750465      30.13258658        0       0.00034345       0.02778067       0.00150954
