40
Lattice="8.421641763931781 0.0 0.0 4.2108208819658905 7.293355709136913 0.0 0.0 0.0 46.87624170604845" Properties=species:S:1:pos:R:3:tags:I:1:forces:R:3 charge=0 spin=0 energy=-206.41952968558434 free_energy=-206.41952968558434 stress="0.010374183766543865 2.5407871362403966e-05 1.4954769540054258e-05 2.5407871362403966e-05 0.010559076443314552 -1.536658965051174e-05 1.4954769540054258e-05 -1.536658965051174e-05 -0.00017524433496873826" pbc="T T T"
Pt      -0.00000003       0.00000022      19.95723434        4      -0.00079442       0.00294732       0.01848171
Pt       2.80721396      -0.00000018      19.95723452        4      -0.00137923       0.00342109       0.01840232
Pt       5.61442778      -0.00000004      19.95723454        4      -0.00124293       0.00284209       0.01821889
Pt       1.40360719       2.43111838      19.95723440        4      -0.00106477       0.00291772       0.01842580
Pt       4.21082079       2.43111832      19.95723449        4      -0.00132199       0.00318089       0.01743628
Pt       7.01803484       2.43111842      19.95723441        4      -0.00067868       0.00283110       0.01748057
Pt       2.80721406       4.86223725      19.95723409        4      -0.00102431       0.00322843       0.01854446
Pt       5.61442803       4.86223733      19.95723425        4      -0.00083676       0.00363014       0.01835618
Pt       8.42164141       4.86223723      19.95723442        4      -0.00075779       0.00320025       0.01886899
Pt       1.40360730       0.81037260      22.29206788        3      -0.00238072       0.01320453      -0.05064287
Pt       4.21082126       0.81037254      22.29206791        3      -0.00207849       0.01120892      -0.05068045
Pt       7.01803479       0.81037259      22.29206783        3      -0.00359903       0.01243766      -0.05263576
Pt       2.80721452       3.24149125      22.29206775        3      -0.00278169       0.01478372      -0.05093175
Pt       5.61442760       3.24149123      22.29206789        3      -0.00161085       0.01450475      -0.04878205
Pt       8.42164156       3.24149116      22.29206803        3      -0.00242961       0.01337307      -0.05096885
Pt       4.21082093       5.67260998      22.29206800        3      -0.00373489       0.01275412      -0.05269480
Pt       7.01803487       5.67261039      22.29206775        3      -0.00273599       0.01211206      -0.05419213
Pt       9.82524824       5.67261062      22.29206803        3      -0.00281553       0.01292300      -0.05126363
Pt      -0.00000058       1.62074570      24.58417378        2       0.01028410      -0.03790586       0.02885040
Pt       2.80721444       1.62074548      24.58417392        2       0.01179250      -0.03766831       0.02860131
Pt       5.61442778       1.62074537      24.58417373        2       0.00893915      -0.03462513       0.02414235
Pt       1.40360636       4.05186440      24.58417384        2       0.00745064      -0.04060842       0.00772585
Pt       4.21082088       4.05186399      24.58417380        2       0.00903932      -0.04052533       0.02467431
Pt       7.01803502       4.05186406      24.58417406        2       0.01257244      -0.03874579       0.03008803
Pt       2.80721280       6.48298341      24.58417369        2       0.01420499      -0.03260675       0.02260038
Pt       5.61442796       6.48298324      24.58417387        2       0.00769270      -0.03394026       0.03408073
Pt       8.42164221       6.48298340      24.58417380        2       0.00454398      -0.03652447       0.02411793
Pt       0.01091821      -0.05014420      26.91703950        1       0.00072066       0.02031792      -0.00210125
Pt       2.81883131      -0.04984671      26.91589758        1      -0.01399597       0.02190647       0.00348195
Pt       5.62596606      -0.05159577      26.91459967        1      -0.00717663       0.04015952       0.01022438
Pt       1.41406287       2.38299738      26.91541232        1      -0.00834199      -0.00247762       0.00750931
Pt       4.22069312       2.37930671      26.91572965        1       0.00152143       0.02390209       0.00250814
Pt       7.02950001       2.37895173      26.91472544        1      -0.01079236       0.02934934       0.00647155
Pt       2.81530599       4.81172310      26.91338025        1       0.02543955       0.01970784       0.01120911
Pt       5.62440522       4.81206383      26.91242600        1      -0.00565350       0.01924526       0.01143088
Pt       8.43431753       4.81285314      26.91508666        1      -0.03367699       0.01545271       0.01531679
N        9.90084228       4.90112429      30.81360868        0      -0.01457065       0.00321196       0.01136736
H       10.25495650       5.73218124      30.32175120        0       0.01703759      -0.02945306      -0.00320868
H       10.25482387       4.08145427      30.30272603        0       0.00896243       0.03328252      -0.00116049
H        8.88074534       4.90377954      30.68648707        0      -0.01272613      -0.00695542       0.00064670
