40
Lattice="8.421641763931781 0.0 0.0 4.2108208819658905 7.293355709136913 0.0 0.0 0.0 46.87624170604845" Properties=species:S:1:pos:R:3:tags:I:1:forces:R:3 charge=0 spin=0 energy=-206.42440296134117 free_energy=-206.42440296134117 stress="0.01045041624456644 -1.0184205166297033e-05 5.431780209619319e-06 -1.0184205166297033e-05 0.01048418041318655 5.343694056136883e-07 5.431780209619319e-06 5.343694056136883e-07 -0.00012361952394712716" pbc="T T T"
Pt      -0.00000003       0.00000022      19.95723434        4       0.00033928       0.00026343       0.01837567
Pt       2.80721396      -0.00000018      19.95723452        4       0.00001814       0.00051516       0.01830938
Pt       5.61442778      -0.00000004      19.95723454        4       0.00000542      -0.00002342       0.01821691
Pt       1.40360719       2.43111838      19.95723440        4       0.00006478       0.00014995       0.01835862
Pt       4.21082079       2.43111832      19.95723449        4      -0.00004500       0.00047190       0.01774722
Pt       7.01803484       2.43111842      19.95723441        4       0.00051743      -0.00007748       0.01796051
Pt       2.80721406       4.86223725      19.95723409        4       0.00024621       0.00043361       0.01852399
Pt       5.61442803       4.86223733      19.95723425        4       0.00047251       0.00070580       0.01828186
Pt       8.42164141       4.86223723      19.95723442        4       0.00025936       0.00023748       0.01891174
Pt       1.40360730       0.81037260      22.29206788        3       0.00154335       0.00144610      -0.05136486
Pt       4.21082126       0.81037254      22.29206791        3       0.00165960      -0.00064422      -0.05078002
Pt       7.01803479       0.81037259      22.29206783        3      -0.00024409       0.00034801      -0.05130283
Pt       2.80721452       3.24149125      22.29206775        3       0.00048868       0.00285389      -0.05161881
Pt       5.61442760       3.24149123      22.29206789        3       0.00185166       0.00230133      -0.04958427
Pt       8.42164156       3.24149116      22.29206803        3       0.00131435       0.00116162      -0.05093846
Pt       4.21082093       5.67260998      22.29206800        3      -0.00019517       0.00076807      -0.05277844
Pt       7.01803487       5.67261039      22.29206775        3       0.00130929       0.00044470      -0.05297463
Pt       9.82524824       5.67261062      22.29206803        3       0.00099590       0.00077756      -0.05243024
Pt      -0.00000058       1.62074570      24.58417378        2      -0.00503088      -0.00304119       0.03086563
Pt       2.80721444       1.62074548      24.58417392        2       0.00168272      -0.00455956       0.03100442
Pt       5.61442778       1.62074537      24.58417373        2      -0.00183675      -0.00046969       0.02454103
Pt       1.40360636       4.05186440      24.58417384        2      -0.00478966      -0.00204511       0.02659394
Pt       4.21082088       4.05186399      24.58417380        2      -0.00022818      -0.00855988       0.02771851
Pt       7.01803502       4.05186406      24.58417406        2       0.00037186      -0.00462783       0.03208068
Pt       2.80721280       6.48298341      24.58417369        2       0.00138872       0.00290347       0.03309433
Pt       5.61442796       6.48298324      24.58417387        2      -0.00397460      -0.00243009       0.03362728
Pt       8.42164221       6.48298340      24.58417380        2      -0.00729157      -0.00471182       0.03764783
Pt      -0.00048943      -0.00145547      26.91673039        1      -0.01419312      -0.01044935      -0.00368173
Pt       2.80171198      -0.00341664      26.91658375        1       0.01579911      -0.00020703      -0.00250487
Pt       5.61138726      -0.00353032      26.91436057        1       0.00410039      -0.00511229       0.00586604
Pt       1.39972340       2.42819383      26.91425435        1       0.00398646       0.00244737       0.01052891
Pt       4.20818017       2.42375701      26.91545315        1      -0.00419935       0.01487732      -0.00019684
Pt       7.01400195       2.42639670      26.91547946        1       0.00600668       0.00245817       0.00085301
Pt       2.80565882       4.85860015      26.91319130        1       0.00072564       0.00067544       0.00305688
Pt       5.61180754       4.85779908      26.91246655        1      -0.00662403       0.00349207       0.00883155
Pt       8.41804531       4.85788432      26.91709597        1       0.00339682       0.00683603      -0.00024565
N        9.79264894       4.96157076      31.01008618        0       0.00056257       0.00830491       0.00941770
H        8.76527626       4.96776717      31.04914957        0      -0.01419432      -0.01659726       0.00100488
H       10.05908427       5.76989350      30.43305115        0       0.01810264       0.01053123      -0.00874699
H       10.05524229       4.12679992      30.46976577        0      -0.00436276      -0.00184817      -0.00226986
