40
Lattice="8.421641763931781 0.0 0.0 4.2108208819658905 7.293355709136913 0.0 0.0 0.0 46.87624170604845" Properties=species:S:1:pos:R:3:tags:I:1:forces:R:3 charge=0 spin=0 energy=-206.4195335002816 free_energy=-206.4195335002816 stress="0.010374117642641068 2.5386740162502974e-05 1.4937473679310642e-05 2.5386740162502974e-05 0.01055904757231474 -1.53455348481657e-05 1.4937473679310642e-05 -1.53455348481657e-05 -0.00017531245248392224" pbc="T T T"
Pt      -0.00000003       0.00000022      19.95723434        4      -0.00079454       0.00294743       0.01848154
Pt       2.80721396      -0.00000018      19.95723452        4      -0.00137925       0.00342139       0.01840222
Pt       5.61442778      -0.00000004      19.95723454        4      -0.00124295       0.00284224       0.01821878
Pt       1.40360719       2.43111838      19.95723440        4      -0.00106488       0.00291756       0.01842548
Pt       4.21082079       2.43111832      19.95723449        4      -0.00132194       0.00318069       0.01743651
Pt       7.01803484       2.43111842      19.95723441        4      -0.00067873       0.00283098       0.01748061
Pt       2.80721406       4.86223725      19.95723409        4      -0.00102411       0.00322856       0.01854435
Pt       5.61442803       4.86223733      19.95723425        4      -0.00083697       0.00363012       0.01835612
Pt       8.42164141       4.86223723      19.95723442        4      -0.00075768       0.00320010       0.01886867
Pt       1.40360730       0.81037260      22.29206788        3      -0.00238045       0.01320449      -0.05064387
Pt       4.21082126       0.81037254      22.29206791        3      -0.00207838       0.01120856      -0.05067939
Pt       7.01803479       0.81037259      22.29206783        3      -0.00359883       0.01243776      -0.05263577
Pt       2.80721452       3.24149125      22.29206775        3      -0.00278187       0.01478361      -0.05093098
Pt       5.61442760       3.24149123      22.29206789        3      -0.00161042       0.01450513      -0.04878066
Pt       8.42164156       3.24149116      22.29206803        3      -0.00242922       0.01337374      -0.05096978
Pt       4.21082093       5.67260998      22.29206800        3      -0.00373477       0.01275417      -0.05269499
Pt       7.01803487       5.67261039      22.29206775        3      -0.00273600       0.01211220      -0.05419258
Pt       9.82524824       5.67261062      22.29206803        3      -0.00281573       0.01292294      -0.05126473
Pt      -0.00000058       1.62074570      24.58417378        2       0.01028100      -0.03790765       0.02884330
Pt       2.80721444       1.62074548      24.58417392        2       0.01179534      -0.03766998       0.02859314
Pt       5.61442778       1.62074537      24.58417373        2       0.00893854      -0.03462099       0.02413418
Pt       1.40360636       4.05186440      24.58417384        2       0.00745209      -0.04060806       0.00771433
Pt       4.21082088       4.05186399      24.58417380        2       0.00904064      -0.04052788       0.02466575
Pt       7.01803502       4.05186406      24.58417406        2       0.01256914      -0.03874911       0.03008062
Pt       2.80721280       6.48298341      24.58417369        2       0.01420809      -0.03260729       0.02259232
Pt       5.61442796       6.48298324      24.58417387        2       0.00769299      -0.03393807       0.03407792
Pt       8.42164221       6.48298340      24.58417380        2       0.00454068      -0.03652327       0.02410846
Pt       0.01091844      -0.05014365      26.91703992        1       0.00072101       0.02031319      -0.00209936
Pt       2.81883125      -0.04984593      26.91589762        1      -0.01399772       0.02190087       0.00348180
Pt       5.62596642      -0.05159519      26.91459697        1      -0.00717685       0.04015291       0.01024240
Pt       1.41406282       2.38299727      26.91540995        1      -0.00834365      -0.00247528       0.00752752
Pt       4.22069320       2.37930665      26.91573003        1       0.00152130       0.02390630       0.00251047
Pt       7.02949934       2.37895110      26.91472552        1      -0.01079043       0.02935502       0.00647267
Pt       2.81530669       4.81172277      26.91337801        1       0.02543426       0.01971218       0.01121910
Pt       5.62440467       4.81206440      26.91242497        1      -0.00565984       0.01924489       0.01143532
Pt       8.43431628       4.81285335      26.91508360        1      -0.03367236       0.01545462       0.01533041
N        9.90084141       4.90114412      30.81362938        0      -0.01450147       0.00309159       0.01137719
H        8.88074575       4.90378915      30.68650718        0      -0.01278839      -0.00696843       0.00064094
H       10.25495234       5.73216862      30.32171946        0       0.01707629      -0.02938198      -0.00324501
H       10.25482734       4.08144162      30.30279830        0       0.00892608       0.03334482      -0.00112476
