40
Lattice="8.421641763931781 0.0 0.0 4.2108208819658905 7.293355709136913 0.0 0.0 0.0 46.87624170604845" Properties=species:S:1:pos:R:3:tags:I:1:forces:R:3 charge=0 spin=0 energy=-206.42383075675133 free_energy=-206.42383075675133 stress="0.010450133122503757 6.130787369329482e-06 -2.202783207394532e-06 6.130787369329482e-06 0.010525726713240147 -1.3758989553025458e-05 -2.202783207394532e-06 -1.3758989553025458e-05 -0.0001002665885607712" pbc="T T T"
Pt      -0.00000003       0.00000022      19.95723434        4       0.00015599       0.00164917       0.01855487
Pt       2.80721396      -0.00000018      19.95723452        4      -0.00077176       0.00194432       0.01853568
Pt       5.61442778      -0.00000004      19.95723454        4      -0.00045629       0.00204809       0.01859600
Pt       1.40360719       2.43111838      19.95723440        4      -0.00039197       0.00203217       0.01875188
Pt       4.21082079       2.43111832      19.95723449        4       0.00014828       0.00232512       0.01717620
Pt       7.01803484       2.43111842      19.95723441        4      -0.00074745       0.00185995       0.01717360
Pt       2.80721406       4.86223725      19.95723409        4      -0.00037120       0.00214064       0.01887717
Pt       5.61442803       4.86223733      19.95723425        4       0.00011032       0.00221747       0.01844711
Pt       8.42164141       4.86223723      19.95723442        4      -0.00001546       0.00207147       0.01881901
Pt       1.40360730       0.81037260      22.29206788        3       0.00052138       0.00851165      -0.05233378
Pt       4.21082126       0.81037254      22.29206791        3      -0.00023856       0.00702578      -0.05206983
Pt       7.01803479       0.81037259      22.29206783        3      -0.00001604       0.00777471      -0.05252903
Pt       2.80721452       3.24149125      22.29206775        3       0.00010749       0.00907226      -0.05299138
Pt       5.61442760       3.24149123      22.29206789        3       0.00017434       0.00942818      -0.04581890
Pt       8.42164156       3.24149116      22.29206803        3       0.00075293       0.00815582      -0.05256571
Pt       4.21082093       5.67260998      22.29206800        3      -0.00048897       0.00802479      -0.05313001
Pt       7.01803487       5.67261039      22.29206775        3      -0.00005913       0.00730968      -0.05350066
Pt       9.82524824       5.67261062      22.29206803        3      -0.00010026       0.00761861      -0.04892566
Pt      -0.00000058       1.62074570      24.58417378        2       0.00036633      -0.02277553       0.02952366
Pt       2.80721444       1.62074548      24.58417392        2       0.00236704      -0.02286195       0.02964561
Pt       5.61442778       1.62074537      24.58417373        2       0.00055175      -0.01953123       0.03197495
Pt       1.40360636       4.05186440      24.58417384        2       0.00086442      -0.02107676       0.03505284
Pt       4.21082088       4.05186399      24.58417380        2       0.00205059      -0.02153298       0.03738841
Pt       7.01803502       4.05186406      24.58417406        2      -0.00153973      -0.02179532       0.03644629
Pt       2.80721280       6.48298341      24.58417369        2      -0.00378992      -0.02506244       0.03328659
Pt       5.61442796       6.48298324      24.58417387        2      -0.00037870      -0.02695221       0.04231822
Pt       8.42164221       6.48298340      24.58417380        2       0.00270884      -0.02685694       0.03438144
Pt      -0.00185385      -0.03211649      26.91474554        1       0.01234040       0.01240688       0.00619947
Pt       2.80969412      -0.03160713      26.91482471        1      -0.01166495       0.01209055       0.00566896
Pt       5.61511351      -0.02898197      26.91681409        1      -0.00035027       0.00304653      -0.00755793
Pt       1.40343337       2.39783635      26.91647865        1      -0.00045677       0.01706191      -0.00573228
Pt       4.20831330       2.39923311      26.91586999        1       0.01672437       0.01082904       0.00300360
Pt       7.02077636       2.40009583      26.91538277        1      -0.01711550       0.00853941       0.00429414
Pt       2.81094164       4.82995793      26.91721370        1      -0.01760345       0.01629917      -0.00542433
Pt       5.61467387       4.82998035      26.91930210        1      -0.00098239       0.01505718      -0.01461190
Pt       8.41820670       4.83018314      26.91747749        1       0.01753784       0.01921018      -0.00558887
N        9.82953110       4.86685186      30.73449568        0       0.00007001       0.01074219      -0.03851228
H        9.00230692       4.39426941      30.34578733        0       0.02677287      -0.01536932       0.01270537
H        9.82570163       5.81772222      30.34314544        0      -0.00060170       0.02397445       0.02053235
H       10.65222448       4.39633273      30.33384148        0      -0.02618458      -0.01665267       0.01393916
