40
Lattice="8.421641763931781 0.0 0.0 4.2108208819658905 7.293355709136913 0.0 0.0 0.0 46.87624170604845" Properties=species:S:1:pos:R:3:tags:I:1:forces:R:3 charge=0 spin=0 energy=-206.4254443736947 free_energy=-206.4254443736947 stress="0.01049976795911789 3.5079262943327194e-06 -1.514058567408938e-06 3.5079262943327194e-06 0.01054674107581377 -1.072827581083402e-05 -1.514058567408938e-06 -1.072827581083402e-05 -3.3869571780087426e-05" pbc="T T T"
Pt      -0.00000003       0.00000022      19.95723434        4       0.00014401       0.00051814       0.01874469
Pt       2.80721396      -0.00000018      19.95723452        4      -0.00039725       0.00086068       0.01863990
Pt       5.61442778      -0.00000004      19.95723454        4      -0.00035031       0.00102424       0.01841846
Pt       1.40360719       2.43111838      19.95723440        4      -0.00018652       0.00101706       0.01851189
Pt       4.21082079       2.43111832      19.95723449        4      -0.00006727       0.00142175       0.01755714
Pt       7.01803484       2.43111842      19.95723441        4      -0.00025673       0.00086322       0.01754334
Pt       2.80721406       4.86223725      19.95723409        4       0.00009225       0.00125568       0.01885697
Pt       5.61442803       4.86223733      19.95723425        4       0.00030201       0.00118326       0.01829297
Pt       8.42164141       4.86223723      19.95723442        4      -0.00019246       0.00110793       0.01884081
Pt       1.40360730       0.81037260      22.29206788        3       0.00059253       0.00479901      -0.05458797
Pt       4.21082126       0.81037254      22.29206791        3      -0.00070461       0.00282365      -0.05105098
Pt       7.01803479       0.81037259      22.29206783        3       0.00061252       0.00388261      -0.05150137
Pt       2.80721452       3.24149125      22.29206775        3      -0.00034451       0.00502874      -0.05341486
Pt       5.61442760       3.24149123      22.29206789        3       0.00015699       0.00502978      -0.04563719
Pt       8.42164156       3.24149116      22.29206803        3       0.00144113       0.00404157      -0.05309962
Pt       4.21082093       5.67260998      22.29206800        3      -0.00067168       0.00421228      -0.05206215
Pt       7.01803487       5.67261039      22.29206775        3       0.00023466       0.00347066      -0.05211168
Pt       9.82524824       5.67261062      22.29206803        3       0.00003761       0.00345447      -0.05071982
Pt      -0.00000058       1.62074570      24.58417378        2      -0.01207923      -0.01549922       0.04230144
Pt       2.80721444       1.62074548      24.58417392        2       0.01435249      -0.01589784       0.04363552
Pt       5.61442778       1.62074537      24.58417373        2      -0.00053659      -0.00022806       0.04196464
Pt       1.40360636       4.05186440      24.58417384        2      -0.00029078      -0.00869908       0.02410156
Pt       4.21082088       4.05186399      24.58417380        2       0.00504929      -0.01258546       0.05287515
Pt       7.01803502       4.05186406      24.58417406        2      -0.00527617      -0.01246172       0.05264082
Pt       2.80721280       6.48298341      24.58417369        2       0.00519351      -0.01122322       0.03584377
Pt       5.61442796       6.48298324      24.58417387        2      -0.00067131      -0.01657183       0.05643942
Pt       8.42164221       6.48298340      24.58417380        2      -0.00722163      -0.01290459       0.03680565
Pt      -0.00072817      -0.01785198      26.91923324        1       0.00346515       0.01379410      -0.01560997
Pt       2.80742072      -0.01765408      26.91957096        1      -0.00227484       0.01466920      -0.01696842
Pt       5.61443868      -0.01377575      26.91235742        1       0.00073645       0.00716652       0.01369572
Pt       1.40299387       2.41280572      26.91062914        1      -0.00079741       0.00686037       0.01838108
Pt       4.21088091       2.41627704      26.92242959        1       0.00034294      -0.00288983      -0.02724677
Pt       7.01737066       2.41714357      26.92139663        1      -0.00079481      -0.00411968      -0.02372029
Pt       2.80638814       4.84549211      26.91664675        1       0.01248994       0.00803640      -0.00199711
Pt       5.61388849       4.84612681      26.92318986        1       0.00064858       0.00659306      -0.03025199
Pt       8.42177887       4.84639699      26.91729256        1      -0.01289420       0.00714251      -0.00357798
N        9.83035417       4.84217455      30.82806719        0       0.00098820       0.01142288       0.01544593
H       10.65005353       4.39852000      30.39392526        0      -0.01100260      -0.01049594      -0.00639082
H        9.00074740       4.39721585      30.41452351        0       0.01243415      -0.00659767      -0.00769438
H        9.82609024       5.81944314      30.50922275        0      -0.00230344       0.00849408      -0.00189373
