40
Lattice="8.421641763931781 0.0 0.0 4.2108208819658905 7.293355709136913 0.0 0.0 0.0 46.87624170604845" Properties=species:S:1:pos:R:3:tags:I:1:forces:R:3 charge=0 spin=0 energy=-206.41996837576988 free_energy=-206.41996837576988 stress="0.01037274394184351 -9.426680662727449e-06 -2.1949163055978715e-05 -9.426680662727449e-06 0.010558590292930603 -1.3016044249525294e-05 -2.1949163055978715e-05 -1.3016044249525294e-05 -0.0001730826188577339" pbc="T T T"
Pt      -0.00000003       0.00000022      19.95723434        4       0.00034524       0.00308371       0.01840330
Pt       2.80721396      -0.00000018      19.95723452        4      -0.00007828       0.00330849       0.01854681
Pt       5.61442778      -0.00000004      19.95723454        4       0.00014999       0.00287518       0.01828723
Pt       1.40360719       2.43111838      19.95723440        4       0.00008063       0.00294379       0.01841520
Pt       4.21082079       2.43111832      19.95723449        4      -0.00006753       0.00319413       0.01753314
Pt       7.01803484       2.43111842      19.95723441        4       0.00053742       0.00285157       0.01739141
Pt       2.80721406       4.86223725      19.95723409        4       0.00012086       0.00324080       0.01881337
Pt       5.61442803       4.86223733      19.95723425        4       0.00071627       0.00375546       0.01822525
Pt       8.42164141       4.86223723      19.95723442        4       0.00037615       0.00318891       0.01854766
Pt       1.40360730       0.81037260      22.29206788        3       0.00357868       0.01272051      -0.05070799
Pt       4.21082126       0.81037254      22.29206791        3       0.00379073       0.01116523      -0.05197889
Pt       7.01803479       0.81037259      22.29206783        3       0.00253885       0.01123653      -0.05094103
Pt       2.80721452       3.24149125      22.29206775        3       0.00368560       0.01384867      -0.05147892
Pt       5.61442760       3.24149123      22.29206789        3       0.00228142       0.01408470      -0.04914764
Pt       8.42164156       3.24149116      22.29206803        3       0.00387975       0.01328032      -0.05068146
Pt       4.21082093       5.67260998      22.29206800        3       0.00286722       0.01182392      -0.05386412
Pt       7.01803487       5.67261039      22.29206775        3       0.00343237       0.01127955      -0.05281061
Pt       9.82524824       5.67261062      22.29206803        3       0.00286442       0.01216489      -0.05130612
Pt      -0.00000058       1.62074570      24.58417378        2      -0.00981493      -0.03582501       0.02873869
Pt       2.80721444       1.62074548      24.58417392        2      -0.00781787      -0.03771890       0.02996153
Pt       5.61442778       1.62074537      24.58417373        2      -0.00818771      -0.03339085       0.02411674
Pt       1.40360636       4.05186440      24.58417384        2      -0.00580280      -0.03891863       0.00831512
Pt       4.21082088       4.05186399      24.58417380        2      -0.01273564      -0.03717928       0.03094631
Pt       7.01803502       4.05186406      24.58417406        2      -0.00873916      -0.03888802       0.02502411
Pt       2.80721280       6.48298341      24.58417369        2      -0.00696658      -0.03357170       0.02385522
Pt       5.61442796       6.48298324      24.58417387        2      -0.00904648      -0.03173201       0.03410381
Pt       8.42164221       6.48298340      24.58417380        2      -0.01496443      -0.03238772       0.02289482
Pt      -0.01152861      -0.04840332      26.91574793        1       0.01312155       0.02171111       0.00387963
Pt       2.79656494      -0.04738695      26.91720643        1      -0.00156376       0.01959741      -0.00241961
Pt       5.60365851      -0.04940310      26.91515332        1       0.00724143       0.04000050       0.00889900
Pt       1.39165260       2.38530031      26.91506229        1       0.00968196      -0.00328986       0.00718908
Pt       4.19889833       2.38074211      26.91483041        1       0.01130437       0.02840412       0.00591900
Pt       7.00767497       2.38213011      26.91507625        1      -0.00218830       0.02247713       0.00369522
Pt       2.79391805       4.81449956      26.91510309        1       0.03421396       0.01526377       0.01489209
Pt       5.60396652       4.81427818      26.91242295        1       0.00627622       0.01825877       0.01090118
Pt       8.41315703       4.81535974      26.91362088        1      -0.02625351       0.01705367       0.01031537
N        9.74919379       4.89912439      30.81714000        0       0.01381596       0.00338820       0.01187660
H       10.76918704       4.89516885      30.68939697        0       0.01388728      -0.00652923       0.00091859
H        9.39174531       4.07033630      30.32373710        0      -0.00898825       0.03055500      -0.00251906
H        9.39803865       5.72083507      30.30788806        0      -0.01757313      -0.02732469      -0.00275014
