40
Lattice="8.421641763931781 0.0 0.0 4.2108208819658905 7.293355709136913 0.0 0.0 0.0 46.87624170604845" Properties=species:S:1:pos:R:3:tags:I:1:forces:R:3 charge=0 spin=0 energy=-206.41990161856774 free_energy=-206.41990161856774 stress="0.010339513421058655 9.252155905414838e-06 -4.2268277411494637e-07 9.252155905414838e-06 0.010457945987582207 -1.1840817023767158e-05 -4.2268277411494637e-07 -1.1840817023767158e-05 -0.0002602742169983685" pbc="T T T"
Pt      -0.00000003       0.00000022      19.95723434        4      -0.00005813       0.00216995       0.01843368
Pt       2.80721396      -0.00000018      19.95723452        4      -0.00100337       0.00255772       0.01850527
Pt       5.61442778      -0.00000004      19.95723454        4      -0.00060306       0.00211335       0.01817938
Pt       1.40360719       2.43111838      19.95723440        4      -0.00051604       0.00229747       0.01860438
Pt       4.21082079       2.43111832      19.95723449        4      -0.00022412       0.00244083       0.01730663
Pt       7.01803484       2.43111842      19.95723441        4      -0.00054462       0.00215290       0.01723384
Pt       2.80721406       4.86223725      19.95723409        4      -0.00073696       0.00259724       0.01874153
Pt       5.61442803       4.86223733      19.95723425        4      -0.00012113       0.00309068       0.01826810
Pt       8.42164141       4.86223723      19.95723442        4       0.00001616       0.00261841       0.01866791
Pt       1.40360730       0.81037260      22.29206788        3       0.00005760       0.00980559      -0.04929061
Pt       4.21082126       0.81037254      22.29206791        3       0.00007464       0.00841416      -0.05109565
Pt       7.01803479       0.81037259      22.29206783        3      -0.00069324       0.00912650      -0.05166987
Pt       2.80721452       3.24149125      22.29206775        3       0.00034688       0.01131944      -0.05148480
Pt       5.61442760       3.24149123      22.29206789        3      -0.00021793       0.01199972      -0.05013255
Pt       8.42164156       3.24149116      22.29206803        3      -0.00061802       0.01022984      -0.05136556
Pt       4.21082093       5.67260998      22.29206800        3      -0.00056522       0.00923812      -0.05387501
Pt       7.01803487       5.67261039      22.29206775        3      -0.00063725       0.00850078      -0.05412687
Pt       9.82524824       5.67261062      22.29206803        3      -0.00055385       0.00954171      -0.04906287
Pt      -0.00000058       1.62074570      24.58417378        2       0.01008605      -0.03119427       0.01718814
Pt       2.80721444       1.62074548      24.58417392        2      -0.00416207      -0.03061969       0.01872431
Pt       5.61442778       1.62074537      24.58417373        2       0.00171454      -0.02909152       0.01431254
Pt       1.40360636       4.05186440      24.58417384        2       0.00293467      -0.02830361       0.00703989
Pt       4.21082088       4.05186399      24.58417380        2      -0.00398551      -0.03089303       0.00655768
Pt       7.01803502       4.05186406      24.58417406        2       0.00683888      -0.03053535       0.00595464
Pt       2.80721280       6.48298341      24.58417369        2       0.00028190      -0.02711285       0.01778587
Pt       5.61442796       6.48298324      24.58417387        2       0.00126720      -0.01819290       0.02264494
Pt       8.42164221       6.48298340      24.58417380        2       0.00065796      -0.02804165       0.01846773
Pt      -0.00025375      -0.03824767      26.91366448        1       0.01633986       0.02311251       0.01228122
Pt       2.81114802      -0.03748781      26.91387193        1      -0.01750290       0.02234301       0.01086613
Pt       5.61661382      -0.03887041      26.91427675        1      -0.00089173       0.03176361       0.00726281
Pt       1.40474754       2.39785189      26.91564516        1       0.00068853      -0.01962180       0.00204535
Pt       4.20862400       2.39208341      26.91036493        1       0.02416386       0.01302933       0.02530262
Pt       7.02362505       2.39265381      26.90961200        1      -0.02719788       0.01227642       0.02771137
Pt       2.81083938       4.82396228      26.91353509        1      -0.00150132       0.02087371       0.01403531
Pt       5.61623546       4.82449817      26.90624853        1      -0.00158843       0.01621928       0.04143483
Pt       8.42192757       4.82461440      26.91316261        1      -0.00113343       0.02202123       0.01496781
N        9.82537904       4.74426877      30.73423446        0      -0.00034840       0.00779686       0.02499955
H        9.00068022       4.19061411      30.47059151        0      -0.00848751      -0.01732186      -0.00660304
H        9.82052683       5.57750456      30.13259544        0       0.00034648       0.02770955       0.00156467
H       10.64907766       4.19357280      30.46150662        0       0.00807691      -0.01643119      -0.00638124
