40
Lattice="8.421641763931781 0.0 0.0 4.2108208819658905 7.293355709136913 0.0 0.0 0.0 46.87624170604845" Properties=species:S:1:pos:R:3:tags:I:1:forces:R:3 charge=0 spin=0 energy=-206.41996456107262 free_energy=-206.41996456107262 stress="0.010372738353908062 -9.418217814527452e-06 -2.1947978893877007e-05 -9.418217814527452e-06 0.010558596812188625 -1.3005606888327748e-05 -2.1947978893877007e-05 -1.3005606888327748e-05 -0.00017308305541519076" pbc="T T T"
Pt      -0.00000003       0.00000022      19.95723434        4       0.00034509       0.00308378       0.01840332
Pt       2.80721396      -0.00000018      19.95723452        4      -0.00007814       0.00330836       0.01854694
Pt       5.61442778      -0.00000004      19.95723454        4       0.00014998       0.00287525       0.01828723
Pt       1.40360719       2.43111838      19.95723440        4       0.00008070       0.00294365       0.01841528
Pt       4.21082079       2.43111832      19.95723449        4      -0.00006768       0.00319409       0.01753333
Pt       7.01803484       2.43111842      19.95723441        4       0.00053749       0.00285158       0.01739145
Pt       2.80721406       4.86223725      19.95723409        4       0.00012074       0.00324092       0.01881329
Pt       5.61442803       4.86223733      19.95723425        4       0.00071649       0.00375559       0.01822516
Pt       8.42164141       4.86223723      19.95723442        4       0.00037607       0.00318896       0.01854770
Pt       1.40360730       0.81037260      22.29206788        3       0.00357906       0.01272070      -0.05070804
Pt       4.21082126       0.81037254      22.29206791        3       0.00379061       0.01116536      -0.05197929
Pt       7.01803479       0.81037259      22.29206783        3       0.00253883       0.01123650      -0.05094049
Pt       2.80721452       3.24149125      22.29206775        3       0.00368590       0.01384875      -0.05147942
Pt       5.61442760       3.24149123      22.29206789        3       0.00228098       0.01408427      -0.04914875
Pt       8.42164156       3.24149116      22.29206803        3       0.00387989       0.01328074      -0.05068106
Pt       4.21082093       5.67260998      22.29206800        3       0.00286734       0.01182373      -0.05386410
Pt       7.01803487       5.67261039      22.29206775        3       0.00343235       0.01128025      -0.05280905
Pt       9.82524824       5.67261062      22.29206803        3       0.00286447       0.01216453      -0.05130591
Pt      -0.00000058       1.62074570      24.58417378        2      -0.00981708      -0.03582234       0.02874117
Pt       2.80721444       1.62074548      24.58417392        2      -0.00781975      -0.03772051       0.02995894
Pt       5.61442778       1.62074537      24.58417373        2      -0.00818354      -0.03339174       0.02411830
Pt       1.40360636       4.05186440      24.58417384        2      -0.00580699      -0.03891937       0.00831143
Pt       4.21082088       4.05186399      24.58417380        2      -0.01273321      -0.03717916       0.03094215
Pt       7.01803502       4.05186406      24.58417406        2      -0.00873702      -0.03888880       0.02503032
Pt       2.80721280       6.48298341      24.58417369        2      -0.00696778      -0.03356994       0.02384976
Pt       5.61442796       6.48298324      24.58417387        2      -0.00904466      -0.03173337       0.03410198
Pt       8.42164221       6.48298340      24.58417380        2      -0.01496565      -0.03238985       0.02289407
Pt      -0.01152883      -0.04840394      26.91574752        1       0.01312187       0.02171499       0.00388739
Pt       2.79656530      -0.04738734      26.91720638        1      -0.00156843       0.01959721      -0.00241914
Pt       5.60365839      -0.04940471      26.91515317        1       0.00724709       0.04001136       0.00889957
Pt       1.39165274       2.38530101      26.91506270        1       0.00967828      -0.00329579       0.00718874
Pt       4.19889809       2.38074138      26.91483021        1       0.01130613       0.02840601       0.00592626
Pt       7.00767474       2.38212979      26.91507631        1      -0.00218567       0.02247637       0.00368555
Pt       2.79391762       4.81449924      26.91510263        1       0.03421865       0.01526170       0.01490161
Pt       5.60396673       4.81427755      26.91242176        1       0.00627711       0.01825818       0.01089995
Pt       8.41315809       4.81535978      26.91362110        1      -0.02626296       0.01704826       0.01030975
N        9.74919365       4.89912646      30.81716250        0       0.01378800       0.00332356       0.01184916
H        9.39804223       5.72083538      30.30790402        0      -0.01758417      -0.02730760      -0.00275744
H       10.76918565       4.89516769      30.68942022        0       0.01390140      -0.00653456       0.00091871
H        9.39174355       4.07033642      30.32375629        0      -0.00896174       0.03060840      -0.00248568
