40
Lattice="8.421641763931781 0.0 0.0 4.2108208819658905 7.293355709136913 0.0 0.0 0.0 46.87624170604845" Properties=species:S:1:pos:R:3:tags:I:1:forces:R:3 charge=0 spin=0 energy=-206.424694785682 free_energy=-206.424694785682 stress="0.010462474077939987 3.2619561807223363e-06 -8.174096137736342e-07 3.2619561807223363e-06 0.010508852079510689 -7.407568318740232e-06 -8.174096137736342e-07 -7.407568318740232e-06 -9.696614870335907e-05" pbc="T T T"
Pt      -0.00000003       0.00000022      19.95723434        4       0.00027669       0.00102326       0.01851023
Pt       2.80721396      -0.00000018      19.95723452        4      -0.00080286       0.00138721       0.01857469
Pt       5.61442778      -0.00000004      19.95723454        4      -0.00027105       0.00138950       0.01862491
Pt       1.40360719       2.43111838      19.95723440        4      -0.00025200       0.00131714       0.01870073
Pt       4.21082079       2.43111832      19.95723449        4       0.00007498       0.00160862       0.01729497
Pt       7.01803484       2.43111842      19.95723441        4      -0.00052449       0.00116342       0.01722319
Pt       2.80721406       4.86223725      19.95723409        4      -0.00027548       0.00146194       0.01889125
Pt       5.61442803       4.86223733      19.95723425        4       0.00022429       0.00164214       0.01844887
Pt       8.42164141       4.86223723      19.95723442        4       0.00003658       0.00138453       0.01880500
Pt       1.40360730       0.81037260      22.29206788        3       0.00046070       0.00618788      -0.05176856
Pt       4.21082126       0.81037254      22.29206791        3       0.00015000       0.00429692      -0.05211615
Pt       7.01803479       0.81037259      22.29206783        3      -0.00009387       0.00518102      -0.05212426
Pt       2.80721452       3.24149125      22.29206775        3       0.00005645       0.00681808      -0.05262885
Pt       5.61442760       3.24149123      22.29206789        3       0.00015109       0.00692375      -0.04595296
Pt       8.42164156       3.24149116      22.29206803        3       0.00084481       0.00587462      -0.05321816
Pt       4.21082093       5.67260998      22.29206800        3      -0.00050333       0.00547278      -0.05280949
Pt       7.01803487       5.67261039      22.29206775        3       0.00048930       0.00484405      -0.05313535
Pt       9.82524824       5.67261062      22.29206803        3      -0.00008665       0.00524526      -0.04997636
Pt      -0.00000058       1.62074570      24.58417378        2       0.00015243      -0.01676394       0.03034238
Pt       2.80721444       1.62074548      24.58417392        2       0.00243117      -0.01600034       0.02984251
Pt       5.61442778       1.62074537      24.58417373        2      -0.00085830      -0.01229150       0.03187962
Pt       1.40360636       4.05186440      24.58417384        2       0.00269846      -0.01423131       0.03401098
Pt       4.21082088       4.05186399      24.58417380        2       0.00091253      -0.01427749       0.03957024
Pt       7.01803502       4.05186406      24.58417406        2      -0.00377317      -0.01513880       0.03587028
Pt       2.80721280       6.48298341      24.58417369        2      -0.00354579      -0.01869447       0.03460467
Pt       5.61442796       6.48298324      24.58417387        2      -0.00136319      -0.01961379       0.04287557
Pt       8.42164221       6.48298340      24.58417380        2       0.00204488      -0.01875816       0.03273958
Pt      -0.00244090      -0.02257611      26.91530223        1       0.01312114       0.01039982       0.00422187
Pt       2.80909862      -0.02159427      26.91456606        1      -0.01268241       0.00832256       0.00611451
Pt       5.61475742      -0.01939668      26.91656826        1       0.00023596       0.00112043      -0.00719001
Pt       1.40292602       2.40780250      26.91611209        1       0.00102815       0.01159106      -0.00386205
Pt       4.20759307       2.40943620      26.91584434        1       0.01755138       0.00684903       0.00146866
Pt       7.02051868       2.40973978      26.91473622        1      -0.01867776       0.00722936       0.00464295
Pt       2.81010944       4.83976980      26.91794128        1      -0.01447948       0.01274587      -0.00617350
Pt       5.61416796       4.84016904      26.91932780        1       0.00153518       0.00912829      -0.01564743
Pt       8.41835311       4.84015447      26.91628717        1       0.01355430       0.01511439      -0.00397287
N        9.81042992       4.86663510      30.75003695        0      -0.00713612      -0.00034415      -0.03574931
H        9.35699090       5.68545619      30.32383049        0       0.01608295       0.02417831       0.01728555
H       10.78175458       4.86215554      30.41030750        0      -0.02461762       0.00013747       0.00838050
H        9.35381032       4.04326452      30.33617152        0       0.01583011      -0.02392478       0.01740165
