40
Lattice="8.421641763931781 0.0 0.0 4.2108208819658905 7.293355709136913 0.0 0.0 0.0 46.87624170604845" Properties=species:S:1:pos:R:3:tags:I:1:forces:R:3 charge=0 spin=0 energy=-206.4181907268441 free_energy=-206.4181907268441 stress="0.010382705368101597 7.300933248188812e-06 -6.111479706305545e-06 7.300933248188812e-06 0.010573094710707664 -1.1933876521652564e-05 -6.111479706305545e-06 -1.1933876521652564e-05 -0.0001837711752159521" pbc="T T T"
Pt      -0.00000003       0.00000022      19.95723434        4       0.00004685       0.00361486       0.01840489
Pt       2.80721396      -0.00000018      19.95723452        4      -0.00098628       0.00390287       0.01838574
Pt       5.61442778      -0.00000004      19.95723454        4      -0.00056659       0.00363973       0.01850357
Pt       1.40360719       2.43111838      19.95723440        4      -0.00047579       0.00323433       0.01848292
Pt       4.21082079       2.43111832      19.95723449        4      -0.00039609       0.00366346       0.01714737
Pt       7.01803484       2.43111842      19.95723441        4      -0.00037333       0.00329383       0.01719565
Pt       2.80721406       4.86223725      19.95723409        4      -0.00030106       0.00351707       0.01878368
Pt       5.61442803       4.86223733      19.95723425        4       0.00000194       0.00393332       0.01851223
Pt       8.42164141       4.86223723      19.95723442        4      -0.00023163       0.00348860       0.01880762
Pt       1.40360730       0.81037260      22.29206788        3       0.00092925       0.01501906      -0.04996107
Pt       4.21082126       0.81037254      22.29206791        3       0.00133305       0.01271371      -0.05175974
Pt       7.01803479       0.81037259      22.29206783        3      -0.00035987       0.01323260      -0.05246910
Pt       2.80721452       3.24149125      22.29206775        3       0.00059735       0.01618849      -0.05209592
Pt       5.61442760       3.24149123      22.29206789        3       0.00062695       0.01579138      -0.04490966
Pt       8.42164156       3.24149116      22.29206803        3       0.00153330       0.01550112      -0.05130102
Pt       4.21082093       5.67260998      22.29206800        3      -0.00074650       0.01435769      -0.05366383
Pt       7.01803487       5.67261039      22.29206775        3       0.00122288       0.01385681      -0.05404548
Pt       9.82524824       5.67261062      22.29206803        3       0.00042253       0.01402176      -0.05254595
Pt      -0.00000058       1.62074570      24.58417378        2       0.00023355      -0.03902505       0.02077666
Pt       2.80721444       1.62074548      24.58417392        2      -0.00019948      -0.04078327       0.02080574
Pt       5.61442778       1.62074537      24.58417373        2      -0.00071216      -0.03789290       0.01964871
Pt       1.40360636       4.05186440      24.58417384        2       0.00039816      -0.04652957       0.01534703
Pt       4.21082088       4.05186399      24.58417380        2       0.00094887      -0.04356742       0.02865326
Pt       7.01803502       4.05186406      24.58417406        2      -0.00339331      -0.04409645       0.02752451
Pt       2.80721280       6.48298341      24.58417369        2      -0.00163195      -0.03767829       0.02272935
Pt       5.61442796       6.48298324      24.58417387        2      -0.00169253      -0.04242726       0.03330494
Pt       8.42164221       6.48298340      24.58417380        2      -0.00251786      -0.03970251       0.02316659
Pt      -0.00161373      -0.05510084      26.91535887        1       0.00749938       0.01061668       0.01019384
Pt       2.80641800      -0.05441856      26.91574571        1      -0.00602972       0.00954284       0.00918570
Pt       5.61346137      -0.05453270      26.91595116        1       0.00058088       0.01698005       0.00176280
Pt       1.40179262       2.37308667      26.91664689        1       0.00105638       0.02783637       0.00182156
Pt       4.20724158       2.37126480      26.91455506        1       0.01394315       0.04305810       0.01249460
Pt       7.01852928       2.37169453      26.91431862        1      -0.01240218       0.04318815       0.01308569
Pt       2.80661696       4.80612333      26.91281226        1       0.00649358       0.01944124       0.01523361
Pt       5.61300952       4.80574396      26.91574514        1       0.00120857       0.01901900      -0.00158630
Pt       8.41925249       4.80661468      26.91280810        1      -0.00629460       0.02058119       0.01569323
N        9.82538422       4.93133814      30.72428257        0       0.00012893       0.00800613      -0.00205856
H       10.65368861       5.45470684      30.41067638        0      -0.02533407      -0.02808022      -0.00320457
H        9.82743359       4.03793512      30.21368389        0       0.00033209       0.04616001       0.01608664
H        9.00379566       5.45774150      30.39838223        0       0.02510752      -0.02761767      -0.00213675
