40
Lattice="8.421641763931781 0.0 0.0 4.2108208819658905 7.293355709136913 0.0 0.0 0.0 46.87624170604845" Properties=species:S:1:pos:R:3:tags:I:1:forces:R:3 charge=0 spin=0 energy=-206.4211547466195 free_energy=-206.4211547466195 stress="0.01037748996168375 9.921006494550966e-06 -1.7656473119131988e-06 9.921006494550966e-06 0.010540631599724293 -1.6505075109307654e-05 -1.7656473119131988e-06 -1.6505075109307654e-05 -0.00017748943355400115" pbc="T T T"
Pt      -0.00000003       0.00000022      19.95723434        4      -0.00023284       0.00286875       0.01840485
Pt       2.80721396      -0.00000018      19.95723452        4      -0.00084104       0.00319089       0.01842240
Pt       5.61442778      -0.00000004      19.95723454        4      -0.00064922       0.00295766       0.01838199
Pt       1.40360719       2.43111838      19.95723440        4      -0.00054503       0.00289326       0.01861816
Pt       4.21082079       2.43111832      19.95723449        4      -0.00036439       0.00308276       0.01729722
Pt       7.01803484       2.43111842      19.95723441        4      -0.00049621       0.00270944       0.01724518
Pt       2.80721406       4.86223725      19.95723409        4      -0.00051418       0.00307188       0.01881791
Pt       5.61442803       4.86223733      19.95723425        4      -0.00007912       0.00342567       0.01845777
Pt       8.42164141       4.86223723      19.95723442        4      -0.00024781       0.00302102       0.01875843
Pt       1.40360730       0.81037260      22.29206788        3       0.00030638       0.01199742      -0.05107666
Pt       4.21082126       0.81037254      22.29206791        3      -0.00000714       0.01040683      -0.05099098
Pt       7.01803479       0.81037259      22.29206783        3      -0.00038534       0.01124797      -0.05145344
Pt       2.80721452       3.24149125      22.29206775        3       0.00028415       0.01358054      -0.05138313
Pt       5.61442760       3.24149123      22.29206789        3      -0.00002796       0.01416389      -0.04807953
Pt       8.42164156       3.24149116      22.29206803        3       0.00010358       0.01256927      -0.05105292
Pt       4.21082093       5.67260998      22.29206800        3      -0.00041992       0.01170372      -0.05405654
Pt       7.01803487       5.67261039      22.29206775        3      -0.00044797       0.01100625      -0.05428545
Pt       9.82524824       5.67261062      22.29206803        3      -0.00034581       0.01175149      -0.05050502
Pt      -0.00000058       1.62074570      24.58417378        2       0.00398165      -0.03398050       0.02156615
Pt       2.80721444       1.62074548      24.58417392        2       0.00057523      -0.03382367       0.02238209
Pt       5.61442778       1.62074537      24.58417373        2       0.00153935      -0.03371817       0.02135739
Pt       1.40360636       4.05186440      24.58417384        2       0.00165978      -0.03741592       0.01380411
Pt       4.21082088       4.05186399      24.58417380        2       0.00027074      -0.03562461       0.02623401
Pt       7.01803502       4.05186406      24.58417406        2       0.00229092      -0.03556367       0.02637299
Pt       2.80721280       6.48298341      24.58417369        2       0.00003474      -0.03182569       0.02825547
Pt       5.61442796       6.48298324      24.58417387        2       0.00045204      -0.03340743       0.03399074
Pt       8.42164221       6.48298340      24.58417380        2       0.00034104      -0.03325828       0.02866728
Pt       0.00092323      -0.04528642      26.91501873        1       0.00351582       0.00503584       0.00760146
Pt       2.80896575      -0.04463190      26.91509599        1      -0.00519986       0.00488797       0.00720053
Pt       5.61602065      -0.04561915      26.91721842        1      -0.00038174       0.01858320      -0.00433163
Pt       1.40411367       2.38481169      26.91650138        1       0.00024157       0.01234536       0.00140820
Pt       4.20981971       2.38167552      26.91391319        1       0.01427240       0.03088957       0.01310234
Pt       7.02115839       2.38232437      26.91345907        1      -0.01602048       0.02947890       0.01420607
Pt       2.80817417       4.81499655      26.91387281        1       0.01185660       0.02279270       0.01236653
Pt       5.61557262       4.81461213      26.91348077        1      -0.00135931       0.02285999       0.00682736
Pt       8.42287928       4.81572827      26.91410985        1      -0.01287728       0.02309942       0.01172340
N        9.82505882       4.86662764      30.76940134        0       0.00047537      -0.00157354       0.03979056
H        8.99867397       4.34602527      30.44953930        0      -0.00817826       0.00988916      -0.01512625
H        9.82039035       5.76649944      30.27234810        0      -0.00022902      -0.01514495      -0.00446914
H       10.64675360       4.34720627      30.43584232        0       0.00764858       0.00982588      -0.01444977
