40
Lattice="8.421641763931781 0.0 0.0 4.2108208819658905 7.293355709136913 0.0 0.0 0.0 46.87624170604845" Properties=species:S:1:pos:R:3:tags:I:1:forces:R:3 charge=0 spin=0 energy=-206.41990352591637 free_energy=-206.41990352591637 stress="0.010339508764445782 9.256110388378147e-06 -4.231357024764293e-07 9.256110388378147e-06 0.010457949712872505 -1.1840898878290318e-05 -4.231357024764293e-07 -1.1840898878290318e-05 -0.000260254048043862" pbc="T T T"
Pt      -0.00000003       0.00000022      19.95723434        4      -0.00005828       0.00216986       0.01843405
Pt       2.80721396      -0.00000018      19.95723452        4      -0.00100354       0.00255768       0.01850538
Pt       5.61442778      -0.00000004      19.95723454        4      -0.00060296       0.00211343       0.01817955
Pt       1.40360719       2.43111838      19.95723440        4      -0.00051608       0.00229746       0.01860457
Pt       4.21082079       2.43111832      19.95723449        4      -0.00022413       0.00244081       0.01730646
Pt       7.01803484       2.43111842      19.95723441        4      -0.00054464       0.00215276       0.01723377
Pt       2.80721406       4.86223725      19.95723409        4      -0.00073700       0.00259732       0.01874174
Pt       5.61442803       4.86223733      19.95723425        4      -0.00012121       0.00309074       0.01826823
Pt       8.42164141       4.86223723      19.95723442        4       0.00001593       0.00261848       0.01866806
Pt       1.40360730       0.81037260      22.29206788        3       0.00005747       0.00980547      -0.04929057
Pt       4.21082126       0.81037254      22.29206791        3       0.00007439       0.00841408      -0.05109527
Pt       7.01803479       0.81037259      22.29206783        3      -0.00069284       0.00912642      -0.05167011
Pt       2.80721452       3.24149125      22.29206775        3       0.00034675       0.01131939      -0.05148511
Pt       5.61442760       3.24149123      22.29206789        3      -0.00021802       0.01199978      -0.05013258
Pt       8.42164156       3.24149116      22.29206803        3      -0.00061801       0.01022964      -0.05136594
Pt       4.21082093       5.67260998      22.29206800        3      -0.00056552       0.00923814      -0.05387498
Pt       7.01803487       5.67261039      22.29206775        3      -0.00063702       0.00850080      -0.05412627
Pt       9.82524824       5.67261062      22.29206803        3      -0.00055374       0.00954147      -0.04906295
Pt      -0.00000058       1.62074570      24.58417378        2       0.01008799      -0.03119531       0.01718640
Pt       2.80721444       1.62074548      24.58417392        2      -0.00415974      -0.03061858       0.01872727
Pt       5.61442778       1.62074537      24.58417373        2       0.00171108      -0.02909336       0.01431543
Pt       1.40360636       4.05186440      24.58417384        2       0.00293498      -0.02830327       0.00704060
Pt       4.21082088       4.05186399      24.58417380        2      -0.00398369      -0.03089355       0.00656400
Pt       7.01803502       4.05186406      24.58417406        2       0.00683714      -0.03053270       0.00595467
Pt       2.80721280       6.48298341      24.58417369        2       0.00027984      -0.02711176       0.01778950
Pt       5.61442796       6.48298324      24.58417387        2       0.00126817      -0.01819437       0.02264770
Pt       8.42164221       6.48298340      24.58417380        2       0.00066003      -0.02804059       0.01847083
Pt      -0.00025339      -0.03824772      26.91366452        1       0.01633770       0.02311111       0.01228033
Pt       2.81114840      -0.03748778      26.91387142        1      -0.01750532       0.02234513       0.01086676
Pt       5.61661373      -0.03887074      26.91427771        1      -0.00088758       0.03176510       0.00725588
Pt       1.40474786       2.39785177      26.91564577        1       0.00068927      -0.01962089       0.00204427
Pt       4.20862440       2.39208324      26.91036511        1       0.02416290       0.01303057       0.02529315
Pt       7.02362513       2.39265416      26.90961139        1      -0.02719845       0.01227194       0.02771990
Pt       2.81083972       4.82396241      26.91353487        1      -0.00149881       0.02087335       0.01403514
Pt       5.61623560       4.82449805      26.90624930        1      -0.00159325       0.01621940       0.04142308
Pt       8.42192748       4.82461485      26.91316293        1      -0.00113155       0.02202071       0.01496802
N        9.82537876       4.74426908      30.73422668        0      -0.00035841       0.00783995       0.02502139
H        9.82052696       5.57750612      30.13258993        0       0.00034054       0.02770408       0.00156596
H       10.64907611       4.19357428      30.46149955        0       0.00811749      -0.01645899      -0.00639384
H        9.00067980       4.19061440      30.47058283        0      -0.00851172      -0.01733182      -0.00661453
