40
Lattice="8.421641763931781 0.0 0.0 4.2108208819658905 7.293355709136913 0.0 0.0 0.0 46.87624170604845" Properties=species:S:1:pos:R:3:tags:I:1:forces:R:3 charge=0 spin=0 energy=-206.42383266409996 free_energy=-206.42383266409996 stress="0.01045013964176178 6.140403002063977e-06 -2.1985545117786387e-06 6.140403002063977e-06 0.010525735095143318 -1.3760727597400546e-05 -2.1985545117786387e-06 -1.3760727597400546e-05 -0.00010026477684732527" pbc="T T T"
Pt      -0.00000003       0.00000022      19.95723434        4       0.00015598       0.00164906       0.01855512
Pt       2.80721396      -0.00000018      19.95723452        4      -0.00077195       0.00194424       0.01853574
Pt       5.61442778      -0.00000004      19.95723454        4      -0.00045630       0.00204826       0.01859619
Pt       1.40360719       2.43111838      19.95723440        4      -0.00039198       0.00203225       0.01875179
Pt       4.21082079       2.43111832      19.95723449        4       0.00014845       0.00232509       0.01717620
Pt       7.01803484       2.43111842      19.95723441        4      -0.00074734       0.00186008       0.01717362
Pt       2.80721406       4.86223725      19.95723409        4      -0.00037125       0.00214085       0.01887720
Pt       5.61442803       4.86223733      19.95723425        4       0.00011024       0.00221747       0.01844700
Pt       8.42164141       4.86223723      19.95723442        4      -0.00001550       0.00207138       0.01881901
Pt       1.40360730       0.81037260      22.29206788        3       0.00052112       0.00851217      -0.05233397
Pt       4.21082126       0.81037254      22.29206791        3      -0.00023883       0.00702578      -0.05206997
Pt       7.01803479       0.81037259      22.29206783        3      -0.00001591       0.00777495      -0.05252875
Pt       2.80721452       3.24149125      22.29206775        3       0.00010719       0.00907220      -0.05299212
Pt       5.61442760       3.24149123      22.29206789        3       0.00017433       0.00942829      -0.04581837
Pt       8.42164156       3.24149116      22.29206803        3       0.00075305       0.00815585      -0.05256582
Pt       4.21082093       5.67260998      22.29206800        3      -0.00048916       0.00802511      -0.05312960
Pt       7.01803487       5.67261039      22.29206775        3      -0.00005931       0.00730999      -0.05350109
Pt       9.82524824       5.67261062      22.29206803        3      -0.00010022       0.00761838      -0.04892510
Pt      -0.00000058       1.62074570      24.58417378        2       0.00036319      -0.02277596       0.02952225
Pt       2.80721444       1.62074548      24.58417392        2       0.00236901      -0.02286353       0.02964297
Pt       5.61442778       1.62074537      24.58417373        2       0.00055367      -0.01952863       0.03197477
Pt       1.40360636       4.05186440      24.58417384        2       0.00086418      -0.02107525       0.03505010
Pt       4.21082088       4.05186399      24.58417380        2       0.00205272      -0.02153157       0.03739096
Pt       7.01803502       4.05186406      24.58417406        2      -0.00154151      -0.02179649       0.03645111
Pt       2.80721280       6.48298341      24.58417369        2      -0.00378782      -0.02506403       0.03328480
Pt       5.61442796       6.48298324      24.58417387        2      -0.00037902      -0.02695399       0.04231978
Pt       8.42164221       6.48298340      24.58417380        2       0.00270790      -0.02685847       0.03437734
Pt      -0.00185355      -0.03211688      26.91474599        1       0.01234071       0.01240408       0.00619966
Pt       2.80969436      -0.03160774      26.91482521        1      -0.01166948       0.01209392       0.00566987
Pt       5.61511346      -0.02898237      26.91681331        1      -0.00034909       0.00304875      -0.00754854
Pt       1.40343337       2.39783586      26.91647790        1      -0.00045690       0.01706249      -0.00572405
Pt       4.20831328       2.39923279      26.91587110        1       0.01672604       0.01083107       0.00300411
Pt       7.02077645       2.40009566      26.91538355        1      -0.01711605       0.00854061       0.00428623
Pt       2.81094155       4.82995746      26.91721375        1      -0.01759975       0.01630029      -0.00542477
Pt       5.61467399       4.82998037      26.91930308        1      -0.00098517       0.01505402      -0.01461820
Pt       8.41820695       4.83018302      26.91747713        1       0.01753640       0.01920673      -0.00558839
N        9.82953197       4.86685216      30.73449296        0       0.00001947       0.01075217      -0.03852487
H       10.65222489       4.39633310      30.33383987        0      -0.02615972      -0.01666910       0.01392882
H        9.00230686       4.39426934      30.34578573        0       0.02680183      -0.01535310       0.01272032
H        9.82570220       5.81772247      30.34314160        0      -0.00060303       0.02396478       0.02053866
