40
Lattice="8.421641763931781 0.0 0.0 4.2108208819658905 7.293355709136913 0.0 0.0 0.0 46.87624170604845" Properties=species:S:1:pos:R:3:tags:I:1:forces:R:3 charge=0 spin=0 energy=-206.4254443736947 free_energy=-206.4254443736947 stress="0.01050728652626276 3.8590223994106054e-06 -3.485788965917891e-06 3.8590223994106054e-06 0.010538523085415363 -4.1591088120185304e-06 -3.485788965917891e-06 -4.1591088120185304e-06 -3.379849295015447e-05" pbc="T T T"
Pt      -0.00000003       0.00000022      19.95723434        4      -0.00041627       0.00070162       0.01839696
Pt       2.80721396      -0.00000018      19.95723452        4       0.00025173       0.00021910       0.01869870
Pt       5.61442778      -0.00000004      19.95723454        4      -0.00049908       0.00060391       0.01861146
Pt       1.40360719       2.43111838      19.95723440        4      -0.00014302       0.00046237       0.01765631
Pt       4.21082079       2.43111832      19.95723449        4      -0.00015797       0.00056292       0.01847966
Pt       7.01803484       2.43111842      19.95723441        4      -0.00014801       0.00098060       0.01754236
Pt       2.80721406       4.86223725      19.95723409        4      -0.00019210       0.00077898       0.01882376
Pt       5.61442803       4.86223733      19.95723425        4       0.00011617       0.00088021       0.01890203
Pt       8.42164141       4.86223723      19.95723442        4       0.00021984       0.00091298       0.01831738
Pt       1.40360730       0.81037260      22.29206788        3       0.00026128       0.00214690      -0.05156926
Pt       4.21082126       0.81037254      22.29206791        3       0.00030527       0.00372051      -0.05385869
Pt       7.01803479       0.81037259      22.29206783        3      -0.00063706       0.00155409      -0.05057691
Pt       2.80721452       3.24149125      22.29206775        3       0.00149396       0.00319753      -0.05310803
Pt       5.61442760       3.24149123      22.29206789        3      -0.00057698       0.00381347      -0.05399061
Pt       8.42164156       3.24149116      22.29206803        3      -0.00020812       0.00375820      -0.04556737
Pt       4.21082093       5.67260998      22.29206800        3      -0.00021546       0.00229094      -0.05182052
Pt       7.01803487       5.67261039      22.29206775        3      -0.00107006       0.00301052      -0.05169940
Pt       9.82524824       5.67261062      22.29206803        3       0.00028761       0.00204018      -0.05200715
Pt      -0.00000058       1.62074570      24.58417378        2       0.00007207       0.00370322       0.03987510
Pt       2.80721444       1.62074548      24.58417392        2      -0.01099868      -0.01211377       0.04259051
Pt       5.61442778       1.62074537      24.58417373        2       0.01410974      -0.01349244       0.04442941
Pt       1.40360636       4.05186440      24.58417384        2      -0.00647766      -0.00896160       0.05068744
Pt       4.21082088       4.05186399      24.58417380        2       0.00213358      -0.00610738       0.02395309
Pt       7.01803502       4.05186406      24.58417406        2       0.00476009      -0.00840505       0.05338475
Pt       2.80721280       6.48298341      24.58417369        2      -0.00816649      -0.00774346       0.03630772
Pt       5.61442796       6.48298324      24.58417387        2       0.00631744      -0.00823311       0.03671150
Pt       8.42164221       6.48298340      24.58417380        2       0.00002410      -0.01225216       0.05729085
Pt       0.00069307      -0.00868952      26.91177665        1      -0.00040052       0.00497149       0.01530829
Pt       2.80749597      -0.01283686      26.91952245        1       0.00221511       0.01220791      -0.01703233
Pt       5.61504697      -0.01252287      26.92077743        1      -0.00217223       0.01334547      -0.02045185
Pt       1.40372989       2.42236974      26.92092314        1      -0.00099449      -0.00594237      -0.02245687
Pt       4.21100793       2.41750360      26.91087207        1      -0.00229462       0.00643740       0.01817961
Pt       7.01855258       2.42156643      26.92170824        1       0.00028500      -0.00455199      -0.02573710
Pt       2.80776973       4.85151642      26.91580276        1      -0.01269607       0.00535821       0.00151405
Pt       5.61393509       4.85049775      26.91738413        1       0.01235404       0.00623631      -0.00494449
Pt       8.42088741       4.85158036      26.92323821        1       0.00246966       0.00391814      -0.02960906
N        4.20157350       4.86228393      30.83567070        0       0.00896043      -0.00147451       0.01418071
H        4.69074514       5.69338912      30.47934968        0      -0.01042192       0.00602072      -0.00591178
H        4.68892965       4.04758520      30.44108711        0      -0.00544676      -0.00747097      -0.00384560
H        3.26253800       4.87243895      30.41683146        0       0.00769637       0.00291469      -0.00565488
