40
Lattice="8.421641763931781 0.0 0.0 4.2108208819658905 7.293355709136913 0.0 0.0 0.0 46.87624170604845" Properties=species:S:1:pos:R:3:tags:I:1:forces:R:3 charge=0 spin=0 energy=-206.42558551749352 free_energy=-206.42558551749352 stress="0.010512652806937695 3.195881390638533e-06 1.8814240547726513e-06 3.195881390638533e-06 0.010533232241868973 -3.157888386340346e-06 1.8814240547726513e-06 -3.157888386340346e-06 -3.250239387853071e-05" pbc="T T T"
Pt      -0.00000003       0.00000022      19.95723434        4       0.00024007      -0.00002481       0.01867098
Pt       2.80721396      -0.00000018      19.95723452        4      -0.00045927       0.00035328       0.01861055
Pt       5.61442778      -0.00000004      19.95723454        4      -0.00026713       0.00052611       0.01842520
Pt       1.40360719       2.43111838      19.95723440        4      -0.00013484       0.00034916       0.01848833
Pt       4.21082079       2.43111832      19.95723449        4      -0.00015108       0.00073299       0.01766969
Pt       7.01803484       2.43111842      19.95723441        4      -0.00013978       0.00021176       0.01754340
Pt       2.80721406       4.86223725      19.95723409        4       0.00014003       0.00066915       0.01885012
Pt       5.61442803       4.86223733      19.95723425        4       0.00034604       0.00071774       0.01827934
Pt       8.42164141       4.86223723      19.95723442        4      -0.00023387       0.00049247       0.01889976
Pt       1.40360730       0.81037260      22.29206788        3       0.00032934       0.00269462      -0.05403071
Pt       4.21082126       0.81037254      22.29206791        3      -0.00067052       0.00024214      -0.05076702
Pt       7.01803479       0.81037259      22.29206783        3       0.00032281       0.00165081      -0.05091359
Pt       2.80721452       3.24149125      22.29206775        3      -0.00075632       0.00315508      -0.05347709
Pt       5.61442760       3.24149123      22.29206789        3       0.00006009       0.00290950      -0.04573290
Pt       8.42164156       3.24149116      22.29206803        3       0.00115896       0.00193678      -0.05361511
Pt       4.21082093       5.67260998      22.29206800        3      -0.00103857       0.00187510      -0.05178182
Pt       7.01803487       5.67261039      22.29206775        3       0.00043019       0.00129715      -0.05176989
Pt       9.82524824       5.67261062      22.29206803        3      -0.00006490       0.00131784      -0.05209286
Pt      -0.00000058       1.62074570      24.58417378        2      -0.01119863      -0.01004013       0.04351009
Pt       2.80721444       1.62074548      24.58417392        2       0.01429163      -0.01029952       0.04396180
Pt       5.61442778       1.62074537      24.58417373        2      -0.00059334       0.00662778       0.03963984
Pt       1.40360636       4.05186440      24.58417384        2      -0.00016166      -0.00297256       0.02416269
Pt       4.21082088       4.05186399      24.58417380        2       0.00656365      -0.00648269       0.05179508
Pt       7.01803502       4.05186406      24.58417406        2      -0.00487586      -0.00584722       0.05222735
Pt       2.80721280       6.48298341      24.58417369        2       0.00666954      -0.00387454       0.03562143
Pt       5.61442796       6.48298324      24.58417387        2      -0.00051884      -0.00952988       0.05743352
Pt       8.42164221       6.48298340      24.58417380        2      -0.00795058      -0.00664615       0.03775964
Pt      -0.00003353      -0.00911461      26.92026707        1       0.00202337       0.01126922      -0.01844759
Pt       2.80734183      -0.00866307      26.92012968        1      -0.00074394       0.01086423      -0.01920671
Pt       5.61500296      -0.00492135      26.91171442        1       0.00136051       0.00294091       0.01505161
Pt       1.40338601       2.42112820      26.91081164        1       0.00045898       0.00566878       0.01873273
Pt       4.21113405       2.42539012      26.92198303        1       0.00029775      -0.00660979      -0.02623220
Pt       7.01796270       2.42620303      26.92072073        1      -0.00095259      -0.00730210      -0.02269792
Pt       2.80719098       4.85420909      26.91578505        1       0.01162286       0.00503335       0.00145873
Pt       5.61529999       4.85515190      26.92320270        1      -0.00179401       0.00237451      -0.02950248
Pt       8.42265379       4.85524787      26.91734833        1      -0.01281940       0.00365327      -0.00491197
N        9.83446178       4.85894614      30.84018834        0      -0.00902392       0.00164176       0.01362592
H       10.77387394       4.85057174      30.42214379        0      -0.00749659      -0.00291676      -0.00568726
H        9.34367228       4.03265028      30.47498957        0       0.01008933      -0.00617390      -0.00534109
H        9.34955644       5.67865593      30.45301743        0       0.00564040       0.00751410      -0.00420968
