40
Lattice="8.421641763931781 0.0 0.0 4.2108208819658905 7.293355709136913 0.0 0.0 0.0 46.87624170604845" Properties=species:S:1:pos:R:3:tags:I:1:forces:R:3 charge=0 spin=0 energy=-206.41819263419274 free_energy=-206.41819263419274 stress="0.010382678359746933 7.302341145987157e-06 -6.110622052801773e-06 7.302341145987157e-06 0.010573103092610836 -1.1915436516574118e-05 -6.110622052801773e-06 -1.1915436516574118e-05 -0.0001837715390138328" pbc="T T T"
Pt      -0.00000003       0.00000022      19.95723434        4       0.00004667       0.00361489       0.01840489
Pt       2.80721396      -0.00000018      19.95723452        4      -0.00098633       0.00390286       0.01838578
Pt       5.61442778      -0.00000004      19.95723454        4      -0.00056643       0.00363965       0.01850351
Pt       1.40360719       2.43111838      19.95723440        4      -0.00047568       0.00323431       0.01848296
Pt       4.21082079       2.43111832      19.95723449        4      -0.00039606       0.00366351       0.01714730
Pt       7.01803484       2.43111842      19.95723441        4      -0.00037328       0.00329372       0.01719556
Pt       2.80721406       4.86223725      19.95723409        4      -0.00030106       0.00351705       0.01878371
Pt       5.61442803       4.86223733      19.95723425        4       0.00000190       0.00393332       0.01851227
Pt       8.42164141       4.86223723      19.95723442        4      -0.00023165       0.00348868       0.01880767
Pt       1.40360730       0.81037260      22.29206788        3       0.00092934       0.01501893      -0.04996131
Pt       4.21082126       0.81037254      22.29206791        3       0.00133303       0.01271372      -0.05175981
Pt       7.01803479       0.81037259      22.29206783        3      -0.00035999       0.01323258      -0.05246880
Pt       2.80721452       3.24149125      22.29206775        3       0.00059740       0.01618859      -0.05209614
Pt       5.61442760       3.24149123      22.29206789        3       0.00062691       0.01579122      -0.04490975
Pt       8.42164156       3.24149116      22.29206803        3       0.00153323       0.01550104      -0.05130079
Pt       4.21082093       5.67260998      22.29206800        3      -0.00074672       0.01435749      -0.05366417
Pt       7.01803487       5.67261039      22.29206775        3       0.00122289       0.01385693      -0.05404543
Pt       9.82524824       5.67261062      22.29206803        3       0.00042254       0.01402144      -0.05254603
Pt      -0.00000058       1.62074570      24.58417378        2       0.00023316      -0.03902480       0.02077790
Pt       2.80721444       1.62074548      24.58417392        2      -0.00019982      -0.04078329       0.02080648
Pt       5.61442778       1.62074537      24.58417373        2      -0.00071168      -0.03789300       0.01964857
Pt       1.40360636       4.05186440      24.58417384        2       0.00039635      -0.04653024       0.01534420
Pt       4.21082088       4.05186399      24.58417380        2       0.00095076      -0.04356798       0.02864985
Pt       7.01803502       4.05186406      24.58417406        2      -0.00339329      -0.04409668       0.02752460
Pt       2.80721280       6.48298341      24.58417369        2      -0.00163186      -0.03767608       0.02272750
Pt       5.61442796       6.48298324      24.58417387        2      -0.00169227      -0.04242739       0.03330426
Pt       8.42164221       6.48298340      24.58417380        2      -0.00251801      -0.03970273       0.02316675
Pt      -0.00161358      -0.05510076      26.91535855        1       0.00749807       0.01061997       0.01019344
Pt       2.80641814      -0.05441821      26.91574536        1      -0.00602884       0.00954344       0.00918594
Pt       5.61346141      -0.05453273      26.91595092        1       0.00058051       0.01698141       0.00176210
Pt       1.40179267       2.37308718      26.91664702        1       0.00105580       0.02783401       0.00182088
Pt       4.20724170       2.37126498      26.91455482        1       0.01394242       0.04305669       0.01249435
Pt       7.01852930       2.37169476      26.91431750        1      -0.01240122       0.04318762       0.01308506
Pt       2.80661710       4.80612364      26.91281109        1       0.00649331       0.01944050       0.01524247
Pt       5.61300964       4.80574440      26.91574439        1       0.00121238       0.01901907      -0.00158621
Pt       8.41925255       4.80661492      26.91280746        1      -0.00629563       0.02058174       0.01569321
N        9.82538382       4.93133958      30.72428690        0       0.00013368       0.00788728      -0.00208214
H        9.00379654       5.45774069      30.39838493        0       0.02506596      -0.02758947      -0.00214859
H       10.65368719       5.45470673      30.41067892        0      -0.02529980      -0.02805972      -0.00321318
H        9.82743404       4.03793448      30.21368740        0       0.00033341       0.04622943       0.01613123
