40
Lattice="8.421641763931781 0.0 0.0 4.2108208819658905 7.293355709136913 0.0 0.0 0.0 46.87624170604845" Properties=species:S:1:pos:R:3:tags:I:1:forces:R:3 charge=0 spin=0 energy=-206.41996456107262 free_energy=-206.41996456107262 stress="0.010372714139521122 -9.425656571693253e-06 -2.1942520106676966e-05 -9.425656571693253e-06 0.010558615438640118 -1.3012268937018234e-05 -2.1942520106676966e-05 -1.3012268937018234e-05 -0.00017308731912635267" pbc="T T T"
Pt      -0.00000003       0.00000022      19.95723434        4       0.00034505       0.00308364       0.01840319
Pt       2.80721396      -0.00000018      19.95723452        4      -0.00007823       0.00330845       0.01854683
Pt       5.61442778      -0.00000004      19.95723454        4       0.00015007       0.00287491       0.01828697
Pt       1.40360719       2.43111838      19.95723440        4       0.00008088       0.00294365       0.01841505
Pt       4.21082079       2.43111832      19.95723449        4      -0.00006780       0.00319400       0.01753329
Pt       7.01803484       2.43111842      19.95723441        4       0.00053732       0.00285153       0.01739162
Pt       2.80721406       4.86223725      19.95723409        4       0.00012080       0.00324080       0.01881324
Pt       5.61442803       4.86223733      19.95723425        4       0.00071638       0.00375551       0.01822508
Pt       8.42164141       4.86223723      19.95723442        4       0.00037617       0.00318903       0.01854766
Pt       1.40360730       0.81037260      22.29206788        3       0.00357916       0.01272066      -0.05070717
Pt       4.21082126       0.81037254      22.29206791        3       0.00379051       0.01116604      -0.05197916
Pt       7.01803479       0.81037259      22.29206783        3       0.00253864       0.01123669      -0.05094074
Pt       2.80721452       3.24149125      22.29206775        3       0.00368584       0.01384928      -0.05147950
Pt       5.61442760       3.24149123      22.29206789        3       0.00228115       0.01408455      -0.04914957
Pt       8.42164156       3.24149116      22.29206803        3       0.00387948       0.01328087      -0.05068117
Pt       4.21082093       5.67260998      22.29206800        3       0.00286709       0.01182375      -0.05386482
Pt       7.01803487       5.67261039      22.29206775        3       0.00343216       0.01128023      -0.05280881
Pt       9.82524824       5.67261062      22.29206803        3       0.00286458       0.01216524      -0.05130681
Pt      -0.00000058       1.62074570      24.58417378        2      -0.00981473      -0.03582359       0.02873864
Pt       2.80721444       1.62074548      24.58417392        2      -0.00782052      -0.03772238       0.02996227
Pt       5.61442778       1.62074537      24.58417373        2      -0.00818590      -0.03339380       0.02411560
Pt       1.40360636       4.05186440      24.58417384        2      -0.00580716      -0.03892003       0.00830925
Pt       4.21082088       4.05186399      24.58417380        2      -0.01273452      -0.03718080       0.03094028
Pt       7.01803502       4.05186406      24.58417406        2      -0.00873515      -0.03888798       0.02502714
Pt       2.80721280       6.48298341      24.58417369        2      -0.00696757      -0.03356989       0.02384818
Pt       5.61442796       6.48298324      24.58417387        2      -0.00904277      -0.03173018       0.03410264
Pt       8.42164221       6.48298340      24.58417380        2      -0.01496812      -0.03238839       0.02289591
Pt      -0.01152903      -0.04840397      26.91574690        1       0.01312574       0.02171466       0.00388752
Pt       2.79656491      -0.04738731      26.91720739        1      -0.00156614       0.01959835      -0.00242745
Pt       5.60365827      -0.04940572      26.91515308        1       0.00724492       0.04001687       0.00890169
Pt       1.39165239       2.38530214      26.91506193        1       0.00968070      -0.00330168       0.00718999
Pt       4.19889809       2.38074102      26.91482910        1       0.01130515       0.02840520       0.00592494
Pt       7.00767454       2.38212954      26.91507596        1      -0.00218697       0.02247976       0.00369318
Pt       2.79391727       4.81449957      26.91510167        1       0.03422175       0.01526117       0.01490284
Pt       5.60396682       4.81427792      26.91241999        1       0.00627828       0.01825663       0.01090553
Pt       8.41315934       4.81535987      26.91362223        1      -0.02626907       0.01704730       0.01031106
N        9.74919225       4.89912317      30.81719735        0       0.01370925       0.00335499       0.01181057
H        9.39175320       4.07033564      30.32378092        0      -0.00896768       0.03061760      -0.00247637
H        9.39803626       5.72083516      30.30794471        0      -0.01755523      -0.02736091      -0.00272518
H       10.76918424       4.89517361      30.68945802        0       0.01395649      -0.00652168       0.00091660
