40
Lattice="8.421641763931781 0.0 0.0 4.2108208819658905 7.293355709136913 0.0 0.0 0.0 46.87624170604845" Properties=species:S:1:pos:R:3:tags:I:1:forces:R:3 charge=0 spin=0 energy=-206.4254443736947 free_energy=-206.4254443736947 stress="0.010507314465939999 3.862965058942791e-06 -3.481591193121858e-06 3.862965058942791e-06 0.010538537055253983 -4.157948751526419e-06 -3.481591193121858e-06 -4.157948751526419e-06 -3.37839410349261e-05" pbc="T T T"
Pt      -0.00000003       0.00000022      19.95723434        4       0.00025610       0.00021405       0.01870758
Pt       2.80721396      -0.00000018      19.95723452        4      -0.00050204       0.00060323       0.01861093
Pt       5.61442778      -0.00000004      19.95723454        4      -0.00041837       0.00070770       0.01838858
Pt       1.40360719       2.43111838      19.95723440        4      -0.00016028       0.00056193       0.01848016
Pt       4.21082079       2.43111832      19.95723449        4      -0.00014359       0.00098175       0.01754213
Pt       7.01803484       2.43111842      19.95723441        4      -0.00014530       0.00046262       0.01765593
Pt       2.80721406       4.86223725      19.95723409        4       0.00012119       0.00088068       0.01890298
Pt       5.61442803       4.86223733      19.95723425        4       0.00021541       0.00091381       0.01832603
Pt       8.42164141       4.86223723      19.95723442        4      -0.00019292       0.00077804       0.01881430
Pt       1.40360730       0.81037260      22.29206788        3       0.00030389       0.00371639      -0.05385955
Pt       4.21082126       0.81037254      22.29206791        3      -0.00064071       0.00155893      -0.05057633
Pt       7.01803479       0.81037259      22.29206783        3       0.00026590       0.00214661      -0.05157106
Pt       2.80721452       3.24149125      22.29206775        3      -0.00058712       0.00381447      -0.05398797
Pt       5.61442760       3.24149123      22.29206789        3      -0.00020827       0.00375857      -0.04557046
Pt       8.42164156       3.24149116      22.29206803        3       0.00150346       0.00319667      -0.05310715
Pt       4.21082093       5.67260998      22.29206800        3      -0.00106841       0.00302012      -0.05170273
Pt       7.01803487       5.67261039      22.29206775        3       0.00027420       0.00204479      -0.05200562
Pt       9.82524824       5.67261062      22.29206803        3      -0.00020443       0.00227801      -0.05181682
Pt      -0.00000058       1.62074570      24.58417378        2      -0.01098931      -0.01212034       0.04259230
Pt       2.80721444       1.62074548      24.58417392        2       0.01410422      -0.01349066       0.04442779
Pt       5.61442778       1.62074537      24.58417373        2       0.00006975       0.00371067       0.03987522
Pt       1.40360636       4.05186440      24.58417384        2       0.00214422      -0.00611405       0.02395426
Pt       4.21082088       4.05186399      24.58417380        2       0.00476060      -0.00840470       0.05339113
Pt       7.01803502       4.05186406      24.58417406        2      -0.00648551      -0.00895672       0.05068978
Pt       2.80721280       6.48298341      24.58417369        2       0.00633606      -0.00824268       0.03671522
Pt       5.61442796       6.48298324      24.58417387        2       0.00002544      -0.01225143       0.05728560
Pt       8.42164221       6.48298340      24.58417380        2      -0.00818370      -0.00774502       0.03630533
Pt       0.00028241      -0.01283856      26.91952456        1       0.00221709       0.01220872      -0.01704092
Pt       2.80783407      -0.01252379      26.92077399        1      -0.00217253       0.01334607      -0.02043981
Pt       5.61512303      -0.00869060      26.91177632        1      -0.00040464       0.00497050       0.01532084
Pt       1.40379447       2.41750209      26.91087068        1      -0.00229074       0.00644224       0.01817771
Pt       4.21134028       2.42156527      26.92171014        1       0.00028116      -0.00454950      -0.02574357
Pt       7.01815799       2.42236885      26.92092292        1      -0.00099093      -0.00594211      -0.02245484
Pt       2.80672270       4.85049603      26.91738623        1       0.01235354       0.00623688      -0.00495978
Pt       5.61367454       4.85157894      26.92323814        1       0.00246283       0.00391940      -0.02960696
Pt       8.42219897       4.85151573      26.91580201        1      -0.01269765       0.00535427       0.00151507
N        9.81600008       4.86228749      30.83569505        0       0.00891895      -0.00150911       0.01414407
H       10.30335631       4.04758686      30.44111495        0      -0.00545440      -0.00744481      -0.00383214
H        8.87696456       4.87244103      30.41685364        0       0.00775066       0.00292177      -0.00563052
H       10.30517287       5.69339120      30.47937198        0      -0.01042423       0.00602238      -0.00591692
