40
Lattice="8.421641763931781 0.0 0.0 4.2108208819658905 7.293355709136913 0.0 0.0 0.0 46.87624170604845" Properties=species:S:1:pos:R:3:tags:I:1:forces:R:3 charge=0 spin=0 energy=-206.41819454154137 free_energy=-206.41819454154137 stress="0.01038267556577921 7.3027827056648675e-06 -6.116796612332109e-06 7.3027827056648675e-06 0.010573108680546284 -1.1919729331566487e-05 -6.116796612332109e-06 -1.1919729331566487e-05 -0.00018377981905359775" pbc="T T T"
Pt      -0.00000003       0.00000022      19.95723434        4       0.00004684       0.00361499       0.01840500
Pt       2.80721396      -0.00000018      19.95723452        4      -0.00098620       0.00390313       0.01838568
Pt       5.61442778      -0.00000004      19.95723454        4      -0.00056670       0.00363955       0.01850343
Pt       1.40360719       2.43111838      19.95723440        4      -0.00047577       0.00323429       0.01848296
Pt       4.21082079       2.43111832      19.95723449        4      -0.00039606       0.00366353       0.01714743
Pt       7.01803484       2.43111842      19.95723441        4      -0.00037339       0.00329387       0.01719571
Pt       2.80721406       4.86223725      19.95723409        4      -0.00030086       0.00351701       0.01878375
Pt       5.61442803       4.86223733      19.95723425        4       0.00000194       0.00393360       0.01851240
Pt       8.42164141       4.86223723      19.95723442        4      -0.00023166       0.00348881       0.01880765
Pt       1.40360730       0.81037260      22.29206788        3       0.00092905       0.01501900      -0.04996075
Pt       4.21082126       0.81037254      22.29206791        3       0.00133312       0.01271379      -0.05175987
Pt       7.01803479       0.81037259      22.29206783        3      -0.00035990       0.01323268      -0.05246912
Pt       2.80721452       3.24149125      22.29206775        3       0.00059737       0.01618865      -0.05209537
Pt       5.61442760       3.24149123      22.29206789        3       0.00062675       0.01579063      -0.04490976
Pt       8.42164156       3.24149116      22.29206803        3       0.00153315       0.01550094      -0.05130072
Pt       4.21082093       5.67260998      22.29206800        3      -0.00074635       0.01435751      -0.05366473
Pt       7.01803487       5.67261039      22.29206775        3       0.00122260       0.01385678      -0.05404536
Pt       9.82524824       5.67261062      22.29206803        3       0.00042264       0.01402163      -0.05254576
Pt      -0.00000058       1.62074570      24.58417378        2       0.00023363      -0.03902315       0.02077500
Pt       2.80721444       1.62074548      24.58417392        2      -0.00019985      -0.04078334       0.02080561
Pt       5.61442778       1.62074537      24.58417373        2      -0.00071172      -0.03789319       0.01964911
Pt       1.40360636       4.05186440      24.58417384        2       0.00039662      -0.04653085       0.01534220
Pt       4.21082088       4.05186399      24.58417380        2       0.00094907      -0.04356970       0.02864791
Pt       7.01803502       4.05186406      24.58417406        2      -0.00339150      -0.04409747       0.02752336
Pt       2.80721280       6.48298341      24.58417369        2      -0.00163397      -0.03767719       0.02272398
Pt       5.61442796       6.48298324      24.58417387        2      -0.00169027      -0.04242668       0.03330005
Pt       8.42164221       6.48298340      24.58417380        2      -0.00251886      -0.03970250       0.02316557
Pt      -0.00161394      -0.05510090      26.91535827        1       0.00749927       0.01061899       0.01020190
Pt       2.80641829      -0.05441843      26.91574565        1      -0.00602978       0.00954334       0.00918562
Pt       5.61346128      -0.05453364      26.91595074        1       0.00058529       0.01698660       0.00176344
Pt       1.40179262       2.37308734      26.91664709        1       0.00105567       0.02783190       0.00182232
Pt       4.20724153       2.37126431      26.91455392        1       0.01394337       0.04305867       0.01249466
Pt       7.01852925       2.37169406      26.91431779        1      -0.01240290       0.04318911       0.01308410
Pt       2.80661645       4.80612320      26.91281164        1       0.00649650       0.01944031       0.01524290
Pt       5.61300941       4.80574399      26.91574368        1       0.00120880       0.01901742      -0.00157951
Pt       8.41925288       4.80661476      26.91280761        1      -0.00630120       0.02057960       0.01569438
N        9.82538438       4.93133967      30.72430558        0       0.00016787       0.00789955      -0.00209346
H        9.82743464       4.03793614      30.21370398        0       0.00032540       0.04623664       0.01613312
H        9.00379678       5.45774233      30.39840414        0       0.02506698      -0.02759640      -0.00215200
H       10.65368744       5.45470814      30.41069885        0      -0.02532504      -0.02807181      -0.00320267
