40
Lattice="8.421641763931781 0.0 0.0 4.2108208819658905 7.293355709136913 0.0 0.0 0.0 46.87624170604845" Properties=species:S:1:pos:R:3:tags:I:1:forces:R:3 charge=0 spin=0 energy=-206.42434955557945 free_energy=-206.42434955557945 stress="0.010458098724484444 7.111520062608179e-06 -2.420759983579046e-06 7.111520062608179e-06 0.010513514280319214 -9.332860827271361e-06 -2.420759983579046e-06 -9.332860827271361e-06 -9.875457908492535e-05" pbc="T T T"
Pt      -0.00000003       0.00000022      19.95723434        4       0.00028865       0.00126118       0.01856513
Pt       2.80721396      -0.00000018      19.95723452        4      -0.00085423       0.00158225       0.01849755
Pt       5.61442778      -0.00000004      19.95723454        4      -0.00052207       0.00157362       0.01856615
Pt       1.40360719       2.43111838      19.95723440        4      -0.00039957       0.00148359       0.01870249
Pt       4.21082079       2.43111832      19.95723449        4       0.00003628       0.00181842       0.01719527
Pt       7.01803484       2.43111842      19.95723441        4      -0.00059235       0.00140707       0.01729669
Pt       2.80721406       4.86223725      19.95723409        4      -0.00035983       0.00165460       0.01882344
Pt       5.61442803       4.86223733      19.95723425        4       0.00003144       0.00183251       0.01851676
Pt       8.42164141       4.86223723      19.95723442        4       0.00000931       0.00163257       0.01886640
Pt       1.40360730       0.81037260      22.29206788        3       0.00026325       0.00709745      -0.05165322
Pt       4.21082126       0.81037254      22.29206791        3      -0.00022482       0.00532290      -0.05183348
Pt       7.01803479       0.81037259      22.29206783        3      -0.00060767       0.00574013      -0.05284092
Pt       2.80721452       3.24149125      22.29206775        3      -0.00025892       0.00759953      -0.05364604
Pt       5.61442760       3.24149123      22.29206789        3      -0.00006918       0.00762496      -0.04566728
Pt       8.42164156       3.24149116      22.29206803        3       0.00068901       0.00680070      -0.05209563
Pt       4.21082093       5.67260998      22.29206800        3      -0.00114707       0.00649945      -0.05282843
Pt       7.01803487       5.67261039      22.29206775        3      -0.00013982       0.00572788      -0.05333250
Pt       9.82524824       5.67261062      22.29206803        3      -0.00030086       0.00612029      -0.04981882
Pt      -0.00000058       1.62074570      24.58417378        2       0.00061674      -0.01759028       0.02938708
Pt       2.80721444       1.62074548      24.58417392        2       0.00265587      -0.01962808       0.02994240
Pt       5.61442778       1.62074537      24.58417373        2       0.00196423      -0.01482250       0.03207527
Pt       1.40360636       4.05186440      24.58417384        2       0.00016962      -0.01714887       0.03381315
Pt       4.21082088       4.05186399      24.58417380        2       0.00422568      -0.01737503       0.03678905
Pt       7.01803502       4.05186406      24.58417406        2      -0.00040282      -0.01681973       0.03821069
Pt       2.80721280       6.48298341      24.58417369        2      -0.00283304      -0.01929290       0.03136902
Pt       5.61442796       6.48298324      24.58417387        2       0.00077166      -0.02239611       0.04281780
Pt       8.42164221       6.48298340      24.58417380        2       0.00215451      -0.02282563       0.03568963
Pt      -0.00084012      -0.02555195      26.91438025        1       0.01315573       0.01004276       0.00676455
Pt       2.81057627      -0.02540042      26.91553764        1      -0.01282638       0.01105578       0.00348186
Pt       5.61587775      -0.02290665      26.91646666        1      -0.00071906       0.00300414      -0.00681152
Pt       1.40432375       2.40432348      26.91628229        1      -0.00141206       0.01312051      -0.00416048
Pt       4.20894974       2.40548224      26.91527801        1       0.01796212       0.01014691       0.00368487
Pt       7.02187724       2.40667426      26.91545885        1      -0.01793808       0.00692343       0.00293144
Pt       2.81137016       4.83641168      26.91614432        1      -0.01444464       0.01326542      -0.00355741
Pt       5.61549222       4.83673572      26.91938604        1      -0.00233556       0.01109555      -0.01562061
Pt       8.41951505       4.83663311      26.91792400        1       0.01366628       0.01625650      -0.00584805
N        9.84036702       4.87240302      30.74376935        0       0.00707133      -0.00005869      -0.03645914
H       10.29603283       4.05990626      30.30792271        0      -0.01433435      -0.02445727       0.01805741
H        8.86908493       4.87800578      30.40391154        0       0.02480146       0.00138452       0.00878480
H       10.29495809       5.70187834      30.33996767        0      -0.01781085       0.02334014       0.01734465
