40
Lattice="8.421641763931781 0.0 0.0 4.2108208819658905 7.293355709136913 0.0 0.0 0.0 46.87624170604845" Properties=species:S:1:pos:R:3:tags:I:1:forces:R:3 charge=0 spin=0 energy=-206.42440868338707 free_energy=-206.42440868338707 stress="0.010450799949467182 1.0789564839797094e-05 -6.515025688713649e-06 1.0789564839797094e-05 0.010481062345206738 -6.148246711745742e-07 -6.515025688713649e-06 -6.148246711745742e-07 -0.0001249055057996884" pbc="T T T"
Pt      -0.00000003       0.00000022      19.95723434        4      -0.00028031       0.00005184       0.01835782
Pt       2.80721396      -0.00000018      19.95723452        4      -0.00043459       0.00055121       0.01846354
Pt       5.61442778      -0.00000004      19.95723454        4      -0.00042570      -0.00004931       0.01836549
Pt       1.40360719       2.43111838      19.95723440        4      -0.00034184       0.00000391       0.01830879
Pt       4.21082079       2.43111832      19.95723449        4      -0.00059294       0.00028785       0.01808180
Pt       7.01803484       2.43111842      19.95723441        4       0.00000669      -0.00000759       0.01761151
Pt       2.80721406       4.86223725      19.95723409        4      -0.00022011       0.00021320       0.01881558
Pt       5.61442803       4.86223733      19.95723425        4       0.00006404       0.00067019       0.01809393
Pt       8.42164141       4.86223723      19.95723442        4      -0.00018164       0.00016100       0.01855614
Pt       1.40360730       0.81037260      22.29206788        3      -0.00079841       0.00149696      -0.05140208
Pt       4.21082126       0.81037254      22.29206791        3      -0.00000452      -0.00010097      -0.05113927
Pt       7.01803479       0.81037259      22.29206783        3      -0.00163538      -0.00049025      -0.05085152
Pt       2.80721452       3.24149125      22.29206775        3      -0.00079830       0.00218944      -0.05110783
Pt       5.61442760       3.24149123      22.29206789        3      -0.00161508       0.00252381      -0.04961550
Pt       8.42164156       3.24149116      22.29206803        3      -0.00006767       0.00195075      -0.05134138
Pt       4.21082093       5.67260998      22.29206800        3      -0.00117959       0.00063980      -0.05297166
Pt       7.01803487       5.67261039      22.29206775        3      -0.00025452      -0.00012572      -0.05283773
Pt       9.82524824       5.67261062      22.29206803        3      -0.00120466       0.00065219      -0.05254016
Pt      -0.00000058       1.62074570      24.58417378        2      -0.00035866      -0.00277559       0.03137008
Pt       2.80721444       1.62074548      24.58417392        2       0.00709971      -0.00410888       0.03185233
Pt       5.61442778       1.62074537      24.58417373        2       0.00217471       0.00009141       0.02393564
Pt       1.40360636       4.05186440      24.58417384        2       0.00604456      -0.00248724       0.02659924
Pt       4.21082088       4.05186399      24.58417380        2      -0.00055873      -0.00439219       0.03257489
Pt       7.01803502       4.05186406      24.58417406        2       0.00060455      -0.00940696       0.02777659
Pt       2.80721280       6.48298341      24.58417369        2       0.00460693      -0.00238171       0.03598161
Pt       5.61442796       6.48298324      24.58417387        2       0.00152535      -0.00075241       0.03280044
Pt       8.42164221       6.48298340      24.58417380        2      -0.00322193       0.00100461       0.03326760
Pt       0.00511351      -0.00349185      26.91652696        1      -0.01456948      -0.00171428      -0.00179115
Pt       2.80741901      -0.00100153      26.91674018        1       0.01573937      -0.01054640      -0.00352743
Pt       5.61736606      -0.00296866      26.91455582        1      -0.00144449      -0.00675901       0.00675721
Pt       1.40649258       2.42830136      26.91418123        1      -0.00375361       0.00302546       0.00918925
Pt       4.21463372       2.42662339      26.91559855        1      -0.00618091       0.00145555       0.00032464
Pt       7.02026841       2.42385009      26.91549714        1       0.00416864       0.01634006      -0.00033823
Pt       2.81059383       4.85817952      26.91661378        1      -0.00349029       0.00606826       0.00152803
Pt       5.61735390       4.85797582      26.91223516        1       0.00403996       0.00330535       0.00924045
Pt       8.42328190       4.85932449      26.91338662        1      -0.00248544       0.00306275       0.00208820
N        9.85935929       4.95893013      31.00594467        0      -0.00136560       0.00888862       0.01032414
H       10.88651345       4.97066077      31.04846079        0       0.01487447      -0.01576160       0.00094447
H        9.60248101       4.11778393      30.47278132        0       0.00404906      -0.00362327      -0.00255381
H        9.59088163       5.76038864      30.42046963        0      -0.01753358       0.01084933      -0.00919158
