40
Lattice="8.421641763931781 0.0 0.0 4.2108208819658905 7.293355709136913 0.0 0.0 0.0 46.87624170604845" Properties=species:S:1:pos:R:3:tags:I:1:forces:R:3 charge=0 spin=0 energy=-206.4229800792611 free_energy=-206.4229800792611 stress="0.010540265589952469 1.8269898873768398e-06 -3.846226377390849e-07 1.8269898873768398e-06 0.010557827539741993 -6.234173270058818e-06 -3.846226377390849e-07 -6.234173270058818e-06 -1.8588203829494887e-06" pbc="T T T"
Pt      -0.00000003       0.00000022      19.95723434        4       0.00046908       0.00013911       0.01845610
Pt       2.80721396      -0.00000018      19.95723452        4      -0.00055160       0.00048230       0.01833651
Pt       5.61442778      -0.00000004      19.95723454        4      -0.00019100      -0.00004209       0.01889219
Pt       1.40360719       2.43111838      19.95723440        4      -0.00026270       0.00048479       0.01860610
Pt       4.21082079       2.43111832      19.95723449        4      -0.00053417       0.00050090       0.01778152
Pt       7.01803484       2.43111842      19.95723441        4       0.00018538       0.00008007       0.01779253
Pt       2.80721406       4.86223725      19.95723409        4      -0.00010857       0.00039382       0.01855211
Pt       5.61442803       4.86223733      19.95723425        4       0.00032944       0.00050246       0.01854361
Pt       8.42164141       4.86223723      19.95723442        4       0.00020337       0.00028456       0.01844592
Pt       1.40360730       0.81037260      22.29206788        3       0.00010683       0.00224649      -0.05217582
Pt       4.21082126       0.81037254      22.29206791        3       0.00036633       0.00037376      -0.05395244
Pt       7.01803479       0.81037259      22.29206783        3      -0.00095452       0.00051709      -0.05391084
Pt       2.80721452       3.24149125      22.29206775        3       0.00001606       0.00246768      -0.05136566
Pt       5.61442760       3.24149123      22.29206789        3       0.00012301       0.00076931      -0.04715379
Pt       8.42164156       3.24149116      22.29206803        3       0.00069149       0.00202450      -0.05115956
Pt       4.21082093       5.67260998      22.29206800        3      -0.00084163       0.00173729      -0.05164448
Pt       7.01803487       5.67261039      22.29206775        3       0.00064897       0.00122862      -0.05237583
Pt       9.82524824       5.67261062      22.29206803        3      -0.00029923       0.00180235      -0.05125087
Pt      -0.00000058       1.62074570      24.58417378        2       0.00390558       0.00341787       0.05475986
Pt       2.80721444       1.62074548      24.58417392        2      -0.00252103       0.00119998       0.05267684
Pt       5.61442778       1.62074537      24.58417373        2       0.00065068       0.00416360       0.05456366
Pt       1.40360636       4.05186440      24.58417384        2       0.00206704      -0.01545194       0.03732640
Pt       4.21082088       4.05186399      24.58417380        2       0.00639655      -0.00326591       0.05023191
Pt       7.01803502       4.05186406      24.58417406        2      -0.00723535      -0.00553773       0.05022005
Pt       2.80721280       6.48298341      24.58417369        2      -0.00316759      -0.00132142       0.03295575
Pt       5.61442796       6.48298324      24.58417387        2      -0.00181869      -0.01717605       0.04877036
Pt       8.42164221       6.48298340      24.58417380        2       0.00263028      -0.00386567       0.03178721
Pt      -0.00070792      -0.00835234      26.91374690        1       0.01038188       0.01764118       0.00564055
Pt       2.80834384      -0.00843037      26.91311329        1      -0.01035762       0.01942443       0.00813231
Pt       5.61428785      -0.00270426      26.91833081        1       0.00272927       0.00668725      -0.01272747
Pt       1.40392797       2.42650058      26.92588539        1      -0.00229732      -0.01314467      -0.04057760
Pt       4.20674928       2.42780899      26.91936717        1       0.02090344      -0.01240360      -0.01614834
Pt       7.02244391       2.42709374      26.92034690        1      -0.02123987      -0.00935708      -0.01969422
Pt       2.80479058       4.85808952      26.91603038        1       0.01889921      -0.00586951       0.00449318
Pt       5.61455266       4.85203950      26.92454232        1       0.00020171       0.01825154      -0.04377310
Pt       8.42402267       4.85715882      26.91556851        1      -0.01971808      -0.00016560       0.00690999
N        9.82759057       5.21941995      30.99131625        0      -0.00166938       0.01911498      -0.01811467
H        9.82910590       4.34891497      30.44331951        0       0.00130494      -0.00310852       0.00379028
H        9.00902958       5.75567699      30.67243796        0       0.03302468      -0.00717127       0.00497755
H       10.65634439       5.74915704      30.68823647        0      -0.03246713      -0.00805473       0.00338237
