40
Lattice="8.421641763931781 0.0 0.0 4.2108208819658905 7.293355709136913 0.0 0.0 0.0 46.87624170604845" Properties=species:S:1:pos:R:3:tags:I:1:forces:R:3 charge=0 spin=0 energy=-206.42440677603844 free_energy=-206.42440677603844 stress="0.010450388304889202 -1.0176220712310169e-05 5.443449481390417e-06 -1.0176220712310169e-05 0.01048415806144476 5.285596671456005e-07 5.443449481390417e-06 5.285596671456005e-07 -0.0001236412354046479" pbc="T T T"
Pt      -0.00000003       0.00000022      19.95723434        4       0.00033909       0.00026356       0.01837580
Pt       2.80721396      -0.00000018      19.95723452        4       0.00001792       0.00051544       0.01830958
Pt       5.61442778      -0.00000004      19.95723454        4       0.00000519      -0.00002311       0.01821698
Pt       1.40360719       2.43111838      19.95723440        4       0.00006473       0.00014994       0.01835885
Pt       4.21082079       2.43111832      19.95723449        4      -0.00004495       0.00047206       0.01774711
Pt       7.01803484       2.43111842      19.95723441        4       0.00051715      -0.00007742       0.01796068
Pt       2.80721406       4.86223725      19.95723409        4       0.00024608       0.00043397       0.01852399
Pt       5.61442803       4.86223733      19.95723425        4       0.00047237       0.00070593       0.01828216
Pt       8.42164141       4.86223723      19.95723442        4       0.00025927       0.00023758       0.01891191
Pt       1.40360730       0.81037260      22.29206788        3       0.00154265       0.00144631      -0.05136474
Pt       4.21082126       0.81037254      22.29206791        3       0.00165909      -0.00064401      -0.05078011
Pt       7.01803479       0.81037259      22.29206783        3      -0.00024383       0.00034854      -0.05130279
Pt       2.80721452       3.24149125      22.29206775        3       0.00048824       0.00285377      -0.05161826
Pt       5.61442760       3.24149123      22.29206789        3       0.00185117       0.00230174      -0.04958375
Pt       8.42164156       3.24149116      22.29206803        3       0.00131353       0.00116221      -0.05093801
Pt       4.21082093       5.67260998      22.29206800        3      -0.00019553       0.00076809      -0.05277864
Pt       7.01803487       5.67261039      22.29206775        3       0.00130944       0.00044500      -0.05297567
Pt       9.82524824       5.67261062      22.29206803        3       0.00099551       0.00077720      -0.05242971
Pt      -0.00000058       1.62074570      24.58417378        2      -0.00502924      -0.00304078       0.03086193
Pt       2.80721444       1.62074548      24.58417392        2       0.00168219      -0.00455953       0.03099678
Pt       5.61442778       1.62074537      24.58417373        2      -0.00183379      -0.00047119       0.02453508
Pt       1.40360636       4.05186440      24.58417384        2      -0.00478811      -0.00204696       0.02659081
Pt       4.21082088       4.05186399      24.58417380        2      -0.00022508      -0.00856090       0.02771161
Pt       7.01803502       4.05186406      24.58417406        2       0.00037224      -0.00463030       0.03208056
Pt       2.80721280       6.48298341      24.58417369        2       0.00138770       0.00290278       0.03308829
Pt       5.61442796       6.48298324      24.58417387        2      -0.00397286      -0.00243247       0.03362295
Pt       8.42164221       6.48298340      24.58417380        2      -0.00728905      -0.00471264       0.03764410
Pt      -0.00048833      -0.00145747      26.91672934        1      -0.01418916      -0.01044738      -0.00367270
Pt       2.80171305      -0.00341712      26.91658265        1       0.01579824      -0.00021428      -0.00249764
Pt       5.61138950      -0.00353102      26.91435965        1       0.00409844      -0.00511960       0.00586646
Pt       1.39972525       2.42819261      26.91425504        1       0.00398187       0.00244707       0.01052845
Pt       4.20818162       2.42375494      26.91545197        1      -0.00420087       0.01488098      -0.00018641
Pt       7.01400341       2.42639340      26.91548023        1       0.00600961       0.00246934       0.00085398
Pt       2.80566194       4.85859802      26.91318901        1       0.00071531       0.00067738       0.00306604
Pt       5.61180849       4.85779734      26.91246565        1      -0.00661139       0.00349404       0.00883660
Pt       8.41804723       4.85788227      26.91709397        1       0.00339322       0.00683739      -0.00023993
N        9.79264908       4.96157282      31.01010608        0       0.00058074       0.00831932       0.00941965
H       10.05524072       4.12680098      30.46978788        0      -0.00434688      -0.00187230      -0.00228553
H        8.76527677       4.96776788      31.04917107        0      -0.01423597      -0.01659162       0.00101215
H       10.05908074       5.76989358      30.43306741        0       0.01810590       0.01053513      -0.00874853
