40
Lattice="8.421641763931781 0.0 0.0 4.2108208819658905 7.293355709136913 0.0 0.0 0.0 46.87624170604845" Properties=species:S:1:pos:R:3:tags:I:1:forces:R:3 charge=0 spin=0 energy=-206.42297244986656 free_energy=-206.42297244986656 stress="0.010540497489273548 1.821976070459641e-06 -3.683247769004083e-07 1.821976070459641e-06 0.010558153502643108 -6.191948614286957e-06 -3.683247769004083e-07 -6.191948614286957e-06 -1.4657615565738524e-06" pbc="T T T"
Pt      -0.00000003       0.00000022      19.95723434        4       0.00046897       0.00013873       0.01845495
Pt       2.80721396      -0.00000018      19.95723452        4      -0.00055174       0.00048231       0.01833564
Pt       5.61442778      -0.00000004      19.95723454        4      -0.00019086      -0.00004068       0.01889403
Pt       1.40360719       2.43111838      19.95723440        4      -0.00026292       0.00048441       0.01860671
Pt       4.21082079       2.43111832      19.95723449        4      -0.00053199       0.00050184       0.01778205
Pt       7.01803484       2.43111842      19.95723441        4       0.00018326       0.00008034       0.01779325
Pt       2.80721406       4.86223725      19.95723409        4      -0.00010890       0.00039395       0.01855122
Pt       5.61442803       4.86223733      19.95723425        4       0.00032939       0.00050232       0.01854416
Pt       8.42164141       4.86223723      19.95723442        4       0.00020401       0.00028426       0.01844531
Pt       1.40360730       0.81037260      22.29206788        3       0.00010753       0.00224566      -0.05218238
Pt       4.21082126       0.81037254      22.29206791        3       0.00036461       0.00037501      -0.05395083
Pt       7.01803479       0.81037259      22.29206783        3      -0.00095384       0.00051717      -0.05390690
Pt       2.80721452       3.24149125      22.29206775        3       0.00001215       0.00246530      -0.05137036
Pt       5.61442760       3.24149123      22.29206789        3       0.00012313       0.00077094      -0.04714299
Pt       8.42164156       3.24149116      22.29206803        3       0.00069506       0.00202325      -0.05116495
Pt       4.21082093       5.67260998      22.29206800        3      -0.00084194       0.00174035      -0.05164774
Pt       7.01803487       5.67261039      22.29206775        3       0.00064992       0.00123073      -0.05238001
Pt       9.82524824       5.67261062      22.29206803        3      -0.00029912       0.00180292      -0.05125438
Pt      -0.00000058       1.62074570      24.58417378        2       0.00390304       0.00344164       0.05480032
Pt       2.80721444       1.62074548      24.58417392        2      -0.00251896       0.00122481       0.05272103
Pt       5.61442778       1.62074537      24.58417373        2       0.00065051       0.00413848       0.05466064
Pt       1.40360636       4.05186440      24.58417384        2       0.00206456      -0.01547249       0.03740213
Pt       4.21082088       4.05186399      24.58417380        2       0.00645738      -0.00328212       0.05025274
Pt       7.01803502       4.05186406      24.58417406        2      -0.00729345      -0.00555363       0.05024717
Pt       2.80721280       6.48298341      24.58417369        2      -0.00320933      -0.00129926       0.03300527
Pt       5.61442796       6.48298324      24.58417387        2      -0.00182036      -0.01720486       0.04881375
Pt       8.42164221       6.48298340      24.58417380        2       0.00267478      -0.00384444       0.03184597
Pt      -0.00071413      -0.00834449      26.91374415        1       0.01038668       0.01760752       0.00565953
Pt       2.80834855      -0.00842284      26.91310941        1      -0.01035130       0.01939239       0.00814555
Pt       5.61428978      -0.00271267      26.91837209        1       0.00271289       0.00665742      -0.01291536
Pt       1.40392668       2.42648705      26.92591024        1      -0.00228727      -0.01304939      -0.04069584
Pt       4.20675657       2.42781104      26.91938241        1       0.02089216      -0.01244053      -0.01619892
Pt       7.02243872       2.42709539      26.92036385        1      -0.02123629      -0.00938593      -0.01974708
Pt       2.80482147       4.85807693      26.91601843        1       0.01867506      -0.00581792       0.00454274
Pt       5.61455119       4.85204859      26.92457845        1       0.00021798       0.01821265      -0.04391913
Pt       8.42399284       4.85714508      26.91555695        1      -0.01950022      -0.00010292       0.00694843
N        9.82759269       5.21953988      30.99218369        0      -0.00172550       0.01890268      -0.01820292
H       10.65634657       5.74928530      30.68911494        0      -0.03250195      -0.00806664       0.00335752
H        9.82910815       4.34904970      30.44414882        0       0.00130720      -0.00284486       0.00389846
H        9.00903261       5.75580793      30.67331320        0       0.03310568      -0.00721111       0.00497120
