40
Lattice="8.421641763931781 0.0 0.0 4.2108208819658905 7.293355709136913 0.0 0.0 0.0 46.87624170604845" Properties=species:S:1:pos:R:3:tags:I:1:forces:R:3 charge=0 spin=0 energy=-206.42383075675133 free_energy=-206.42383075675133 stress="0.010450132191181183 6.142199708847329e-06 -2.1924063275946537e-06 6.142199708847329e-06 0.010525748133659363 -1.376759882987244e-05 -2.1924063275946537e-06 -1.376759882987244e-05 -0.00010027076496044174" pbc="T T T"
Pt      -0.00000003       0.00000022      19.95723434        4       0.00015600       0.00164904       0.01855495
Pt       2.80721396      -0.00000018      19.95723452        4      -0.00077203       0.00194429       0.01853564
Pt       5.61442778      -0.00000004      19.95723454        4      -0.00045637       0.00204819       0.01859586
Pt       1.40360719       2.43111838      19.95723440        4      -0.00039184       0.00203224       0.01875175
Pt       4.21082079       2.43111832      19.95723449        4       0.00014830       0.00232515       0.01717603
Pt       7.01803484       2.43111842      19.95723441        4      -0.00074744       0.00186010       0.01717353
Pt       2.80721406       4.86223725      19.95723409        4      -0.00037114       0.00214067       0.01887713
Pt       5.61442803       4.86223733      19.95723425        4       0.00011022       0.00221744       0.01844709
Pt       8.42164141       4.86223723      19.95723442        4      -0.00001551       0.00207142       0.01881903
Pt       1.40360730       0.81037260      22.29206788        3       0.00052125       0.00851204      -0.05233362
Pt       4.21082126       0.81037254      22.29206791        3      -0.00023853       0.00702587      -0.05206985
Pt       7.01803479       0.81037259      22.29206783        3      -0.00001584       0.00777516      -0.05252875
Pt       2.80721452       3.24149125      22.29206775        3       0.00010739       0.00907219      -0.05299190
Pt       5.61442760       3.24149123      22.29206789        3       0.00017443       0.00942861      -0.04581822
Pt       8.42164156       3.24149116      22.29206803        3       0.00075323       0.00815593      -0.05256556
Pt       4.21082093       5.67260998      22.29206800        3      -0.00048887       0.00802505      -0.05312993
Pt       7.01803487       5.67261039      22.29206775        3      -0.00005941       0.00731005      -0.05350139
Pt       9.82524824       5.67261062      22.29206803        3      -0.00010035       0.00761837      -0.04892508
Pt      -0.00000058       1.62074570      24.58417378        2       0.00036304      -0.02277569       0.02952239
Pt       2.80721444       1.62074548      24.58417392        2       0.00236900      -0.02286326       0.02964316
Pt       5.61442778       1.62074537      24.58417373        2       0.00055381      -0.01952890       0.03197444
Pt       1.40360636       4.05186440      24.58417384        2       0.00086389      -0.02107518       0.03505144
Pt       4.21082088       4.05186399      24.58417380        2       0.00205059      -0.02153337       0.03738806
Pt       7.01803502       4.05186406      24.58417406        2      -0.00154029      -0.02179781       0.03644836
Pt       2.80721280       6.48298341      24.58417369        2      -0.00378803      -0.02506403       0.03328336
Pt       5.61442796       6.48298324      24.58417387        2      -0.00037855      -0.02695256       0.04231717
Pt       8.42164221       6.48298340      24.58417380        2       0.00270748      -0.02685816       0.03437839
Pt      -0.00185349      -0.03211705      26.91474564        1       0.01233940       0.01240766       0.00620017
Pt       2.80969408      -0.03160750      26.91482496        1      -0.01166541       0.01209174       0.00566930
Pt       5.61511341      -0.02898223      26.91681284        1      -0.00034994       0.00304720      -0.00754828
Pt       1.40343328       2.39783567      26.91647792        1      -0.00045726       0.01706566      -0.00572395
Pt       4.20831371       2.39923274      26.91587041        1       0.01672215       0.01083052       0.00300370
Pt       7.02077619       2.40009547      26.91538347        1      -0.01711557       0.00854106       0.00428616
Pt       2.81094184       4.82995765      26.91721355        1      -0.01760527       0.01629806      -0.00542511
Pt       5.61467378       4.82998032      26.91930263        1      -0.00097838       0.01505365      -0.01460946
Pt       8.41820641       4.83018294      26.91747712        1       0.01754034       0.01920707      -0.00558858
N        9.82953149       4.86685204      30.73449897        0       0.00001102       0.01081136      -0.03853403
H        9.82570183       5.81772333      30.34314816        0      -0.00059779       0.02391499       0.02055817
H       10.65222472       4.39633316      30.33384539        0      -0.02615370      -0.01667090       0.01392261
H        9.00230687       4.39426944      30.34579146        0       0.02679590      -0.01536096       0.01271587
