40
Lattice="8.421641763931781 0.0 0.0 4.2108208819658905 7.293355709136913 0.0 0.0 0.0 46.87624170604845" Properties=species:S:1:pos:R:3:tags:I:1:forces:R:3 charge=0 spin=0 energy=-206.4247005077279 free_energy=-206.4247005077279 stress="0.010462460108101368 3.2473340070282575e-06 -8.074232482613297e-07 3.2473340070282575e-06 0.01050886046141386 -7.4144472819170915e-06 -8.074232482613297e-07 -7.4144472819170915e-06 -9.697203495306894e-05" pbc="T T T"
Pt      -0.00000003       0.00000022      19.95723434        4       0.00027662       0.00102317       0.01851042
Pt       2.80721396      -0.00000018      19.95723452        4      -0.00080290       0.00138728       0.01857484
Pt       5.61442778      -0.00000004      19.95723454        4      -0.00027094       0.00138939       0.01862480
Pt       1.40360719       2.43111838      19.95723440        4      -0.00025192       0.00131710       0.01870075
Pt       4.21082079       2.43111832      19.95723449        4       0.00007489       0.00160864       0.01729501
Pt       7.01803484       2.43111842      19.95723441        4      -0.00052448       0.00116353       0.01722321
Pt       2.80721406       4.86223725      19.95723409        4      -0.00027554       0.00146202       0.01889140
Pt       5.61442803       4.86223733      19.95723425        4       0.00022445       0.00164223       0.01844912
Pt       8.42164141       4.86223723      19.95723442        4       0.00003666       0.00138466       0.01880519
Pt       1.40360730       0.81037260      22.29206788        3       0.00046091       0.00618804      -0.05176864
Pt       4.21082126       0.81037254      22.29206791        3       0.00014983       0.00429713      -0.05211564
Pt       7.01803479       0.81037259      22.29206783        3      -0.00009376       0.00518119      -0.05212403
Pt       2.80721452       3.24149125      22.29206775        3       0.00005652       0.00681820      -0.05262867
Pt       5.61442760       3.24149123      22.29206789        3       0.00015095       0.00692436      -0.04595311
Pt       8.42164156       3.24149116      22.29206803        3       0.00084485       0.00587475      -0.05321817
Pt       4.21082093       5.67260998      22.29206800        3      -0.00050306       0.00547296      -0.05281032
Pt       7.01803487       5.67261039      22.29206775        3       0.00048934       0.00484422      -0.05313531
Pt       9.82524824       5.67261062      22.29206803        3      -0.00008675       0.00524529      -0.04997589
Pt      -0.00000058       1.62074570      24.58417378        2       0.00015085      -0.01676541       0.03033992
Pt       2.80721444       1.62074548      24.58417392        2       0.00243229      -0.01600156       0.02983941
Pt       5.61442778       1.62074537      24.58417373        2      -0.00085778      -0.01229149       0.03187898
Pt       1.40360636       4.05186440      24.58417384        2       0.00269852      -0.01422958       0.03401015
Pt       4.21082088       4.05186399      24.58417380        2       0.00091122      -0.01427923       0.03956633
Pt       7.01803502       4.05186406      24.58417406        2      -0.00377226      -0.01513998       0.03586690
Pt       2.80721280       6.48298341      24.58417369        2      -0.00354636      -0.01869446       0.03460453
Pt       5.61442796       6.48298324      24.58417387        2      -0.00136310      -0.01961178       0.04287271
Pt       8.42164221       6.48298340      24.58417380        2       0.00204453      -0.01875907       0.03273816
Pt      -0.00244120      -0.02257652      26.91530195        1       0.01311835       0.01040109       0.00422219
Pt       2.80909877      -0.02159475      26.91456546        1      -0.01268518       0.00832286       0.00611459
Pt       5.61475724      -0.01939710      26.91656888        1       0.00024250       0.00112091      -0.00718832
Pt       1.40292603       2.40780235      26.91611169        1       0.00102761       0.01159149      -0.00385289
Pt       4.20759316       2.40943583      26.91584397        1       0.01755204       0.00685003       0.00146921
Pt       7.02051872       2.40973951      26.91473506        1      -0.01867828       0.00722573       0.00464297
Pt       2.81010936       4.83976921      26.91794142        1      -0.01448042       0.01274695      -0.00617303
Pt       5.61416772       4.84016878      26.91932752        1       0.00153647       0.00912634      -0.01563783
Pt       8.41835333       4.84015419      26.91628648        1       0.01355404       0.01511435      -0.00397168
N        9.81043040       4.86666108      30.75006166        0      -0.00721595      -0.00029944      -0.03575041
H        9.35374271       4.04329388      30.33626612        0       0.01582701      -0.02393272       0.01739745
H        9.35705798       5.68548478      30.32378536        0       0.01612839       0.02412949       0.01730875
H       10.78175484       4.86207131      30.41033272        0      -0.02458009       0.00015129       0.00835705
