40
Lattice="8.421641763931781 0.0 0.0 4.2108208819658905 7.293355709136913 0.0 0.0 0.0 46.87624170604845" Properties=species:S:1:pos:R:3:tags:I:1:forces:R:3 charge=0 spin=0 energy=-206.4258754344857 free_energy=-206.4258754344857 stress="0.010521309450268745 2.920564611486043e-06 3.592442610056423e-08 2.920564611486043e-06 0.010525031015276909 3.598227749534999e-06 3.592442610056423e-08 3.598227749534999e-06 -3.081751856370829e-05" pbc="T T T"
Pt      -0.00000003       0.00000022      19.95723434        4       0.00033701      -0.00038953       0.01864533
Pt       2.80721396      -0.00000018      19.95723452        4      -0.00054497       0.00002556       0.01855924
Pt       5.61442778      -0.00000004      19.95723454        4      -0.00033112       0.00019002       0.01838901
Pt       1.40360719       2.43111838      19.95723440        4      -0.00012317      -0.00012016       0.01849836
Pt       4.21082079       2.43111832      19.95723449        4      -0.00019674       0.00027317       0.01761706
Pt       7.01803484       2.43111842      19.95723441        4      -0.00006088      -0.00021983       0.01765512
Pt       2.80721406       4.86223725      19.95723409        4       0.00017789       0.00029288       0.01892162
Pt       5.61442803       4.86223733      19.95723425        4       0.00025233       0.00041883       0.01829594
Pt       8.42164141       4.86223723      19.95723442        4      -0.00023838       0.00016564       0.01886649
Pt       1.40360730       0.81037260      22.29206788        3       0.00001419       0.00137070      -0.05323552
Pt       4.21082126       0.81037254      22.29206791        3      -0.00072396      -0.00103471      -0.05028837
Pt       7.01803479       0.81037259      22.29206783        3      -0.00003692      -0.00011352      -0.05091075
Pt       2.80721452       3.24149125      22.29206775        3      -0.00090554       0.00181421      -0.05403561
Pt       5.61442760       3.24149123      22.29206789        3      -0.00031050       0.00136487      -0.04592475
Pt       8.42164156       3.24149116      22.29206803        3       0.00110873       0.00100979      -0.05362052
Pt       4.21082093       5.67260998      22.29206800        3      -0.00149298       0.00050807      -0.05146009
Pt       7.01803487       5.67261039      22.29206775        3       0.00047387      -0.00020890      -0.05165115
Pt       9.82524824       5.67261062      22.29206803        3      -0.00032869       0.00000414      -0.05303294
Pt      -0.00000058       1.62074570      24.58417378        2      -0.00986127      -0.00614903       0.04373316
Pt       2.80721444       1.62074548      24.58417392        2       0.01398004      -0.00749903       0.04471806
Pt       5.61442778       1.62074537      24.58417373        2       0.00006599       0.01108339       0.03731313
Pt       1.40360636       4.05186440      24.58417384        2       0.00240780       0.00023739       0.02559761
Pt       4.21082088       4.05186399      24.58417380        2       0.00529108      -0.00175102       0.05214491
Pt       7.01803502       4.05186406      24.58417406        2      -0.00514134      -0.00207714       0.05028524
Pt       2.80721280       6.48298341      24.58417369        2       0.00776042      -0.00096557       0.03737177
Pt       5.61442796       6.48298324      24.58417387        2       0.00024423      -0.00426902       0.05777967
Pt       8.42164221       6.48298340      24.58417380        2      -0.00853579      -0.00154074       0.03791947
Pt       0.00109411      -0.00356425      26.92070275        1       0.00035063       0.00956080      -0.01993919
Pt       2.80792630      -0.00315592      26.92139338        1      -0.00030665       0.00972362      -0.02251260
Pt       5.61572849       0.00081489      26.91115081        1       0.00033944      -0.00134750       0.01664412
Pt       1.40436004       2.42597979      26.91112154        1      -0.00130524       0.00696794       0.01801259
Pt       4.21166903       2.43120695      26.92121331        1      -0.00057589      -0.00894573      -0.02406806
Pt       7.01881890       2.43176112      26.92032519        1      -0.00058889      -0.00938971      -0.02106665
Pt       2.80763870       4.85982119      26.91700670        1       0.01066743       0.00258006      -0.00339202
Pt       5.61518145       4.86100700      26.92266542        1       0.00000390      -0.00041085      -0.02824307
Pt       8.42311445       4.86071072      26.91631120        1      -0.01173306       0.00170925      -0.00156959
N        9.81972150       4.87884424      30.84398139        0      -0.00072758      -0.00840503       0.00918564
H       10.65001206       5.32606762      30.43400262        0      -0.01264377       0.00424774      -0.00581358
H        9.82410621       3.90377321      30.51815390        0       0.00189616      -0.00626682      -0.00093081
H        9.00133609       5.32581031      30.41048301        0       0.01134221       0.00755592      -0.00445836
