40
Lattice="8.421641763931781 0.0 0.0 4.2108208819658905 7.293355709136913 0.0 0.0 0.0 46.87624170604845" Properties=species:S:1:pos:R:3:tags:I:1:forces:R:3 charge=0 spin=0 energy=-206.4251372905648 free_energy=-206.4251372905648 stress="0.010473901405930519 4.132990397920366e-06 -1.1410239721953985e-06 4.132990397920366e-06 0.010501488111913204 -2.6570819500193466e-06 -1.1410239721953985e-06 -2.6570819500193466e-06 -9.13665717234835e-05" pbc="T T T"
Pt      -0.00000003       0.00000022      19.95723434        4       0.00039735       0.00060715       0.01854119
Pt       2.80721396      -0.00000018      19.95723452        4      -0.00085295       0.00097618       0.01850307
Pt       5.61442778      -0.00000004      19.95723454        4      -0.00034399       0.00096650       0.01861454
Pt       1.40360719       2.43111838      19.95723440        4      -0.00026692       0.00078346       0.01868246
Pt       4.21082079       2.43111832      19.95723449        4       0.00003973       0.00112458       0.01726032
Pt       7.01803484       2.43111842      19.95723441        4      -0.00044986       0.00071567       0.01732446
Pt       2.80721406       4.86223725      19.95723409        4      -0.00023022       0.00099286       0.01887974
Pt       5.61442803       4.86223733      19.95723425        4       0.00015140       0.00122604       0.01851365
Pt       8.42164141       4.86223723      19.95723442        4       0.00003223       0.00097562       0.01885703
Pt       1.40360730       0.81037260      22.29206788        3       0.00022253       0.00473237      -0.05124512
Pt       4.21082126       0.81037254      22.29206791        3       0.00003454       0.00271945      -0.05187003
Pt       7.01803479       0.81037259      22.29206783        3      -0.00060600       0.00328125      -0.05238326
Pt       2.80721452       3.24149125      22.29206775        3      -0.00023498       0.00528793      -0.05346477
Pt       5.61442760       3.24149123      22.29206789        3      -0.00007954       0.00495749      -0.04568523
Pt       8.42164156       3.24149116      22.29206803        3       0.00073714       0.00452684      -0.05290823
Pt       4.21082093       5.67260998      22.29206800        3      -0.00121248       0.00397268      -0.05255090
Pt       7.01803487       5.67261039      22.29206775        3       0.00044419       0.00336158      -0.05294823
Pt       9.82524824       5.67261062      22.29206803        3      -0.00026871       0.00367583      -0.05081132
Pt      -0.00000058       1.62074570      24.58417378        2       0.00008031      -0.01137175       0.03047045
Pt       2.80721444       1.62074548      24.58417392        2       0.00295765      -0.01258401       0.03034480
Pt       5.61442778       1.62074537      24.58417373        2       0.00053670      -0.00735677       0.03146028
Pt       1.40360636       4.05186440      24.58417384        2       0.00204420      -0.00962649       0.03586579
Pt       4.21082088       4.05186399      24.58417380        2       0.00220390      -0.01003334       0.03868986
Pt       7.01803502       4.05186406      24.58417406        2      -0.00188044      -0.01036410       0.03753695
Pt       2.80721280       6.48298341      24.58417369        2      -0.00298804      -0.01339053       0.03445711
Pt       5.61442796       6.48298324      24.58417387        2      -0.00021748      -0.01489039       0.04295084
Pt       8.42164221       6.48298340      24.58417380        2       0.00205264      -0.01532877       0.03566435
Pt      -0.00120935      -0.01608309      26.91518871        1       0.01172635       0.00882014       0.00422696
Pt       2.80979521      -0.01550881      26.91543581        1      -0.01156772       0.00771110       0.00346789
Pt       5.61546734      -0.01283151      26.91626671        1      -0.00003442      -0.00401323      -0.00686811
Pt       1.40383872       2.41364225      26.91595782        1      -0.00007975       0.01214159      -0.00300027
Pt       4.20846884       2.41573467      26.91538451        1       0.01585641       0.00507382       0.00215131
Pt       7.02130232       2.41630942      26.91507255        1      -0.01668648       0.00411325       0.00325868
Pt       2.81119159       4.84620735      26.91739371        1      -0.01722061       0.00986223      -0.00657859
Pt       5.61496778       4.84670875      26.91922629        1       0.00023112       0.00600616      -0.01555799
Pt       8.41897653       4.84637814      26.91727046        1       0.01555736       0.01282083      -0.00655433
N        9.82119365       4.87202730      30.75549692        0       0.00006514      -0.01013798      -0.03835770
H        8.99926647       5.34864456      30.36054461        0       0.02622592       0.01663233       0.01292384
H       10.64896490       5.34857198      30.37286903        0      -0.02677295       0.01577430       0.01166644
H        9.82402348       3.92658725      30.35116050        0       0.00039681      -0.02474188       0.02047206
