40
Lattice="8.421641763931781 0.0 0.0 4.2108208819658905 7.293355709136913 0.0 0.0 0.0 46.87624170604845" Properties=species:S:1:pos:R:3:tags:I:1:forces:R:3 charge=0 spin=0 energy=-206.42115665396813 free_energy=-206.42115665396813 stress="0.010377481579780579 9.92653895082185e-06 -1.7626130102144089e-06 9.92653895082185e-06 0.010540610179305077 -1.649722980801016e-05 -1.7626130102144089e-06 -1.649722980801016e-05 -0.00017751984705682844" pbc="T T T"
Pt      -0.00000003       0.00000022      19.95723434        4      -0.00023285       0.00286869       0.01840468
Pt       2.80721396      -0.00000018      19.95723452        4      -0.00084133       0.00319092       0.01842238
Pt       5.61442778      -0.00000004      19.95723454        4      -0.00064916       0.00295755       0.01838193
Pt       1.40360719       2.43111838      19.95723440        4      -0.00054516       0.00289307       0.01861812
Pt       4.21082079       2.43111832      19.95723449        4      -0.00036444       0.00308266       0.01729717
Pt       7.01803484       2.43111842      19.95723441        4      -0.00049597       0.00270938       0.01724524
Pt       2.80721406       4.86223725      19.95723409        4      -0.00051416       0.00307192       0.01881795
Pt       5.61442803       4.86223733      19.95723425        4      -0.00007924       0.00342579       0.01845765
Pt       8.42164141       4.86223723      19.95723442        4      -0.00024790       0.00302112       0.01875824
Pt       1.40360730       0.81037260      22.29206788        3       0.00030663       0.01199730      -0.05107663
Pt       4.21082126       0.81037254      22.29206791        3      -0.00000674       0.01040738      -0.05099136
Pt       7.01803479       0.81037259      22.29206783        3      -0.00038507       0.01124815      -0.05145286
Pt       2.80721452       3.24149125      22.29206775        3       0.00028461       0.01358087      -0.05138386
Pt       5.61442760       3.24149123      22.29206789        3      -0.00002804       0.01416405      -0.04808007
Pt       8.42164156       3.24149116      22.29206803        3       0.00010351       0.01256922      -0.05105333
Pt       4.21082093       5.67260998      22.29206800        3      -0.00041976       0.01170355      -0.05405644
Pt       7.01803487       5.67261039      22.29206775        3      -0.00044786       0.01100626      -0.05428526
Pt       9.82524824       5.67261062      22.29206803        3      -0.00034583       0.01175170      -0.05050501
Pt      -0.00000058       1.62074570      24.58417378        2       0.00398217      -0.03398245       0.02155941
Pt       2.80721444       1.62074548      24.58417392        2       0.00057525      -0.03382590       0.02237525
Pt       5.61442778       1.62074537      24.58417373        2       0.00153909      -0.03372004       0.02135191
Pt       1.40360636       4.05186440      24.58417384        2       0.00165958      -0.03741425       0.01379953
Pt       4.21082088       4.05186399      24.58417380        2       0.00027103      -0.03562258       0.02623242
Pt       7.01803502       4.05186406      24.58417406        2       0.00229101      -0.03556214       0.02637080
Pt       2.80721280       6.48298341      24.58417369        2       0.00003538      -0.03182628       0.02825523
Pt       5.61442796       6.48298324      24.58417387        2       0.00045189      -0.03340775       0.03399019
Pt       8.42164221       6.48298340      24.58417380        2       0.00034101      -0.03325799       0.02866708
Pt       0.00092341      -0.04528584      26.91501847        1       0.00351707       0.00502918       0.00760204
Pt       2.80896584      -0.04463145      26.91509608        1      -0.00519934       0.00488337       0.00720142
Pt       5.61602123      -0.04561932      26.91721854        1      -0.00038629       0.01858065      -0.00432999
Pt       1.40411386       2.38481194      26.91650098        1       0.00024197       0.01234676       0.00141755
Pt       4.20981964       2.38167509      26.91391261        1       0.01427417       0.03089330       0.01311095
Pt       7.02115876       2.38232404      26.91345874        1      -0.01602254       0.02948498       0.01421480
Pt       2.80817418       4.81499688      26.91387273        1       0.01185859       0.02279378       0.01236678
Pt       5.61557290       4.81461215      26.91347996        1      -0.00136271       0.02286084       0.00682672
Pt       8.42287950       4.81572851      26.91410990        1      -0.01287613       0.02309922       0.01172403
N        9.82505911       4.86662808      30.76941149        0       0.00046045      -0.00161808       0.03981333
H        9.82039031       5.76649856      30.27235731        0      -0.00022847      -0.01510738      -0.00449252
H       10.64675336       4.34720558      30.43585367        0       0.00764697       0.00982546      -0.01445312
H        8.99867392       4.34602552      30.44954986        0      -0.00816147       0.00989762      -0.01512222
