40
Lattice="8.421641763931781 0.0 0.0 4.2108208819658905 7.293355709136913 0.0 0.0 0.0 46.87624170604845" Properties=species:S:1:pos:R:3:tags:I:1:forces:R:3 charge=0 spin=0 energy=-206.4254443736947 free_energy=-206.4254443736947 stress="0.010507299564778805 3.8528100958501454e-06 -3.471221589279594e-06 3.8528100958501454e-06 0.010538529604673386 -4.15140357290511e-06 -3.471221589279594e-06 -4.15140357290511e-06 -3.379019472049549e-05" pbc="T T T"
Pt      -0.00000003       0.00000022      19.95723434        4       0.00025631       0.00021393       0.01870741
Pt       2.80721396      -0.00000018      19.95723452        4      -0.00050200       0.00060325       0.01861093
Pt       5.61442778      -0.00000004      19.95723454        4      -0.00041842       0.00070756       0.01838850
Pt       1.40360719       2.43111838      19.95723440        4      -0.00016012       0.00056188       0.01848006
Pt       4.21082079       2.43111832      19.95723449        4      -0.00014380       0.00098162       0.01754215
Pt       7.01803484       2.43111842      19.95723441        4      -0.00014518       0.00046255       0.01765621
Pt       2.80721406       4.86223725      19.95723409        4       0.00012086       0.00088048       0.01890307
Pt       5.61442803       4.86223733      19.95723425        4       0.00021541       0.00091401       0.01832618
Pt       8.42164141       4.86223723      19.95723442        4      -0.00019271       0.00077835       0.01881418
Pt       1.40360730       0.81037260      22.29206788        3       0.00030409       0.00371664      -0.05385792
Pt       4.21082126       0.81037254      22.29206791        3      -0.00064015       0.00155896      -0.05057745
Pt       7.01803479       0.81037259      22.29206783        3       0.00026501       0.00214656      -0.05157053
Pt       2.80721452       3.24149125      22.29206775        3      -0.00058692       0.00381476      -0.05398757
Pt       5.61442760       3.24149123      22.29206789        3      -0.00020836       0.00375897      -0.04557184
Pt       8.42164156       3.24149116      22.29206803        3       0.00150274       0.00319649      -0.05310663
Pt       4.21082093       5.67260998      22.29206800        3      -0.00106837       0.00301941      -0.05170361
Pt       7.01803487       5.67261039      22.29206775        3       0.00027402       0.00204451      -0.05200559
Pt       9.82524824       5.67261062      22.29206803        3      -0.00020431       0.00227819      -0.05181568
Pt      -0.00000058       1.62074570      24.58417378        2      -0.01098575      -0.01211773       0.04259314
Pt       2.80721444       1.62074548      24.58417392        2       0.01409954      -0.01349137       0.04442777
Pt       5.61442778       1.62074537      24.58417373        2       0.00007164       0.00370618       0.03988158
Pt       1.40360636       4.05186440      24.58417384        2       0.00214232      -0.00611416       0.02395302
Pt       4.21082088       4.05186399      24.58417380        2       0.00475837      -0.00840454       0.05338768
Pt       7.01803502       4.05186406      24.58417406        2      -0.00648105      -0.00895754       0.05068980
Pt       2.80721280       6.48298341      24.58417369        2       0.00633227      -0.00824133       0.03671465
Pt       5.61442796       6.48298324      24.58417387        2       0.00002683      -0.01224828       0.05728252
Pt       8.42164221       6.48298340      24.58417380        2      -0.00818081      -0.00774495       0.03630867
Pt       0.00028151      -0.01283836      26.91952345        1       0.00222526       0.01221023      -0.01703365
Pt       2.80783549      -0.01252371      26.92077394        1      -0.00217988       0.01334813      -0.02044002
Pt       5.61512308      -0.00869310      26.91177959        1      -0.00040471       0.00498673       0.01530604
Pt       1.40379492       2.41750487      26.91087291        1      -0.00229300       0.00642527       0.01817124
Pt       4.21133915       2.42156443      26.92170868        1       0.00029410      -0.00454871      -0.02573911
Pt       7.01816007       2.42236829      26.92092229        1      -0.00100307      -0.00594162      -0.02245717
Pt       2.80672170       4.85049610      26.91738665        1       0.01236189       0.00623502      -0.00495840
Pt       5.61367504       4.85157855      26.92323563        1       0.00246328       0.00391658      -0.02959854
Pt       8.42220029       4.85151587      26.91580332        1      -0.01270430       0.00535474       0.00150890
N        9.81599989       4.86228828      30.83568671        0       0.00885808      -0.00155748       0.01417384
H        8.87696349       4.87244217      30.41684808        0       0.00775324       0.00292389      -0.00562354
H       10.30517099       5.69339227      30.47936584        0      -0.01038409       0.00606156      -0.00594315
H       10.30335373       4.04758643      30.44110612        0      -0.00543849      -0.00743840      -0.00383735
