40
Lattice="8.421641763931781 0.0 0.0 4.2108208819658905 7.293355709136913 0.0 0.0 0.0 46.87624170604845" Properties=species:S:1:pos:R:3:tags:I:1:forces:R:3 charge=0 spin=0 energy=-206.4251372905648 free_energy=-206.4251372905648 stress="0.010473889298737049 4.1260204852733295e-06 -1.1304116469545988e-06 4.1260204852733295e-06 0.010501483455300331 -2.654747504493571e-06 -1.1304116469545988e-06 -2.654747504493571e-06 -9.137883898802102e-05" pbc="T T T"
Pt      -0.00000003       0.00000022      19.95723434        4       0.00039752       0.00060701       0.01854119
Pt       2.80721396      -0.00000018      19.95723452        4      -0.00085301       0.00097620       0.01850324
Pt       5.61442778      -0.00000004      19.95723454        4      -0.00034394       0.00096662       0.01861443
Pt       1.40360719       2.43111838      19.95723440        4      -0.00026669       0.00078350       0.01868252
Pt       4.21082079       2.43111832      19.95723449        4       0.00003982       0.00112444       0.01726053
Pt       7.01803484       2.43111842      19.95723441        4      -0.00045009       0.00071583       0.01732455
Pt       2.80721406       4.86223725      19.95723409        4      -0.00023027       0.00099266       0.01887985
Pt       5.61442803       4.86223733      19.95723425        4       0.00015143       0.00122602       0.01851377
Pt       8.42164141       4.86223723      19.95723442        4       0.00003211       0.00097560       0.01885697
Pt       1.40360730       0.81037260      22.29206788        3       0.00022185       0.00473246      -0.05124476
Pt       4.21082126       0.81037254      22.29206791        3       0.00003468       0.00271973      -0.05187006
Pt       7.01803479       0.81037259      22.29206783        3      -0.00060606       0.00328127      -0.05238357
Pt       2.80721452       3.24149125      22.29206775        3      -0.00023530       0.00528814      -0.05346442
Pt       5.61442760       3.24149123      22.29206789        3      -0.00007923       0.00495768      -0.04568473
Pt       8.42164156       3.24149116      22.29206803        3       0.00073711       0.00452692      -0.05290860
Pt       4.21082093       5.67260998      22.29206800        3      -0.00121277       0.00397275      -0.05255120
Pt       7.01803487       5.67261039      22.29206775        3       0.00044406       0.00336153      -0.05294833
Pt       9.82524824       5.67261062      22.29206803        3      -0.00026853       0.00367573      -0.05081147
Pt      -0.00000058       1.62074570      24.58417378        2       0.00008268      -0.01137298       0.03046665
Pt       2.80721444       1.62074548      24.58417392        2       0.00295736      -0.01258435       0.03034255
Pt       5.61442778       1.62074537      24.58417373        2       0.00053471      -0.00735755       0.03145701
Pt       1.40360636       4.05186440      24.58417384        2       0.00204598      -0.00962705       0.03586351
Pt       4.21082088       4.05186399      24.58417380        2       0.00220433      -0.01003359       0.03868903
Pt       7.01803502       4.05186406      24.58417406        2      -0.00188242      -0.01036347       0.03753147
Pt       2.80721280       6.48298341      24.58417369        2      -0.00298776      -0.01339057       0.03445752
Pt       5.61442796       6.48298324      24.58417387        2      -0.00021748      -0.01489040       0.04295137
Pt       8.42164221       6.48298340      24.58417380        2       0.00205285      -0.01532731       0.03566040
Pt      -0.00120947      -0.01608295      26.91518772        1       0.01172767       0.00881810       0.00422734
Pt       2.80979558      -0.01550850      26.91543524        1      -0.01157064       0.00770740       0.00346935
Pt       5.61546755      -0.01283163      26.91626741        1      -0.00003270      -0.00401423      -0.00686741
Pt       1.40383888       2.41364222      26.91595794        1      -0.00008040       0.01214207      -0.00299929
Pt       4.20846861       2.41573423      26.91538412        1       0.01585943       0.00507712       0.00215258
Pt       7.02130279       2.41630892      26.91507231        1      -0.01668927       0.00411391       0.00326738
Pt       2.81119186       4.84620710      26.91739409        1      -0.01722025       0.00986290      -0.00657814
Pt       5.61496798       4.84670848      26.91922587        1       0.00023138       0.00600849      -0.01555882
Pt       8.41897651       4.84637826      26.91726968        1       0.01555727       0.01282059      -0.00654593
N        9.82119472       4.87202796      30.75550631        0      -0.00001147      -0.01015321      -0.03836694
H       10.64896441       5.34857190      30.37287882        0      -0.02674161       0.01579203       0.01164871
H        9.82402369       3.92658737      30.35116913        0       0.00040428      -0.02472737       0.02047921
H        8.99926649       5.34864477      30.36055261        0       0.02626341       0.01661535       0.01294247
