40
Lattice="8.421641763931781 0.0 0.0 4.2108208819658905 7.293355709136913 0.0 0.0 0.0 46.87624170604845" Properties=species:S:1:pos:R:3:tags:I:1:forces:R:3 charge=0 spin=0 energy=-206.42587352713707 free_energy=-206.42587352713707 stress="0.010521309450268745 2.946087533928221e-06 6.290272747122572e-09 2.946087533928221e-06 0.010525040328502655 3.601607886594138e-06 6.290272747122572e-09 3.601607886594138e-06 -3.0812883778708056e-05" pbc="T T T"
Pt      -0.00000003       0.00000022      19.95723434        4       0.00033705      -0.00038941       0.01864531
Pt       2.80721396      -0.00000018      19.95723452        4      -0.00054506       0.00002569       0.01855930
Pt       5.61442778      -0.00000004      19.95723454        4      -0.00033122       0.00019011       0.01838890
Pt       1.40360719       2.43111838      19.95723440        4      -0.00012326      -0.00012022       0.01849836
Pt       4.21082079       2.43111832      19.95723449        4      -0.00019658       0.00027323       0.01761691
Pt       7.01803484       2.43111842      19.95723441        4      -0.00006109      -0.00021991       0.01765500
Pt       2.80721406       4.86223725      19.95723409        4       0.00017784       0.00029299       0.01892166
Pt       5.61442803       4.86223733      19.95723425        4       0.00025245       0.00041867       0.01829588
Pt       8.42164141       4.86223723      19.95723442        4      -0.00023833       0.00016546       0.01886653
Pt       1.40360730       0.81037260      22.29206788        3       0.00001471       0.00137046      -0.05323568
Pt       4.21082126       0.81037254      22.29206791        3      -0.00072431      -0.00103522      -0.05028837
Pt       7.01803479       0.81037259      22.29206783        3      -0.00003672      -0.00011380      -0.05091044
Pt       2.80721452       3.24149125      22.29206775        3      -0.00090530       0.00181419      -0.05403621
Pt       5.61442760       3.24149123      22.29206789        3      -0.00031039       0.00136532      -0.04592499
Pt       8.42164156       3.24149116      22.29206803        3       0.00110926       0.00101017      -0.05362035
Pt       4.21082093       5.67260998      22.29206800        3      -0.00149302       0.00050809      -0.05146031
Pt       7.01803487       5.67261039      22.29206775        3       0.00047399      -0.00020893      -0.05165192
Pt       9.82524824       5.67261062      22.29206803        3      -0.00032861       0.00000420      -0.05303325
Pt      -0.00000058       1.62074570      24.58417378        2      -0.00986310      -0.00614939       0.04373837
Pt       2.80721444       1.62074548      24.58417392        2       0.01398032      -0.00749788       0.04471795
Pt       5.61442778       1.62074537      24.58417373        2       0.00006701       0.01108418       0.03731222
Pt       1.40360636       4.05186440      24.58417384        2       0.00240938       0.00023643       0.02560016
Pt       4.21082088       4.05186399      24.58417380        2       0.00529073      -0.00175147       0.05214352
Pt       7.01803502       4.05186406      24.58417406        2      -0.00514275      -0.00208031       0.05028417
Pt       2.80721280       6.48298341      24.58417369        2       0.00776104      -0.00096497       0.03737477
Pt       5.61442796       6.48298324      24.58417387        2       0.00024230      -0.00426816       0.05778025
Pt       8.42164221       6.48298340      24.58417380        2      -0.00853511      -0.00153876       0.03792034
Pt       0.00109411      -0.00356419      26.92070344        1       0.00034831       0.00956047      -0.01994655
Pt       2.80792541      -0.00315560      26.92139253        1      -0.00030204       0.00972102      -0.02251132
Pt       5.61572840       0.00081618      26.91115086        1       0.00033898      -0.00135639       0.01664416
Pt       1.40435980       2.42597866      26.91112096        1      -0.00130642       0.00697598       0.01801049
Pt       4.21167001       2.43120695      26.92121365        1      -0.00058243      -0.00894535      -0.02406637
Pt       7.01881800       2.43176078      26.92032631        1      -0.00058124      -0.00938896      -0.02107265
Pt       2.80763968       4.85982146      26.91700696        1       0.01066020       0.00258041      -0.00339329
Pt       5.61518136       4.86100715      26.92266522        1      -0.00000100      -0.00040963      -0.02823947
Pt       8.42311351       4.86071081      26.91630926        1      -0.01172549       0.00170903      -0.00156352
N        9.81972029       4.87884373      30.84396377        0      -0.00053796      -0.00843981       0.00918259
H        9.00133786       5.32580966      30.41046722        0       0.01123118       0.00760615      -0.00451023
H       10.65001239       5.32606891      30.43398338        0      -0.01271315       0.00420726      -0.00577059
H        9.82410676       3.90377277      30.51813428        0       0.00188968      -0.00624074      -0.00092128
