40
Lattice="8.421641763931781 0.0 0.0 4.2108208819658905 7.293355709136913 0.0 0.0 0.0 46.87624170604845" Properties=species:S:1:pos:R:3:tags:I:1:forces:R:3 charge=0 spin=0 energy=-206.42469669303063 free_energy=-206.42469669303063 stress="0.010462460108101368 3.237699729652377e-06 -7.90484705248673e-07 3.237699729652377e-06 0.010508889332413673 -7.437763088091742e-06 -7.90484705248673e-07 -7.437763088091742e-06 -9.696799679659307e-05" pbc="T T T"
Pt      -0.00000003       0.00000022      19.95723434        4       0.00027655       0.00102316       0.01851036
Pt       2.80721396      -0.00000018      19.95723452        4      -0.00080280       0.00138725       0.01857489
Pt       5.61442778      -0.00000004      19.95723454        4      -0.00027102       0.00138938       0.01862493
Pt       1.40360719       2.43111838      19.95723440        4      -0.00025208       0.00131710       0.01870071
Pt       4.21082079       2.43111832      19.95723449        4       0.00007494       0.00160866       0.01729488
Pt       7.01803484       2.43111842      19.95723441        4      -0.00052446       0.00116345       0.01722296
Pt       2.80721406       4.86223725      19.95723409        4      -0.00027548       0.00146192       0.01889140
Pt       5.61442803       4.86223733      19.95723425        4       0.00022429       0.00164217       0.01844889
Pt       8.42164141       4.86223723      19.95723442        4       0.00003663       0.00138453       0.01880514
Pt       1.40360730       0.81037260      22.29206788        3       0.00046092       0.00618795      -0.05176839
Pt       4.21082126       0.81037254      22.29206791        3       0.00015006       0.00429687      -0.05211600
Pt       7.01803479       0.81037259      22.29206783        3      -0.00009383       0.00518113      -0.05212362
Pt       2.80721452       3.24149125      22.29206775        3       0.00005644       0.00681809      -0.05262890
Pt       5.61442760       3.24149123      22.29206789        3       0.00015089       0.00692407      -0.04595266
Pt       8.42164156       3.24149116      22.29206803        3       0.00084479       0.00587472      -0.05321779
Pt       4.21082093       5.67260998      22.29206800        3      -0.00050334       0.00547273      -0.05280999
Pt       7.01803487       5.67261039      22.29206775        3       0.00048931       0.00484425      -0.05313560
Pt       9.82524824       5.67261062      22.29206803        3      -0.00008663       0.00524523      -0.04997611
Pt      -0.00000058       1.62074570      24.58417378        2       0.00015084      -0.01676469       0.03033973
Pt       2.80721444       1.62074548      24.58417392        2       0.00243263      -0.01600149       0.02983906
Pt       5.61442778       1.62074537      24.58417373        2      -0.00085799      -0.01229161       0.03187909
Pt       1.40360636       4.05186440      24.58417384        2       0.00269663      -0.01423031       0.03400627
Pt       4.21082088       4.05186399      24.58417380        2       0.00091250      -0.01427971       0.03956508
Pt       7.01803502       4.05186406      24.58417406        2      -0.00377156      -0.01514015       0.03586686
Pt       2.80721280       6.48298341      24.58417369        2      -0.00354615      -0.01869265       0.03460191
Pt       5.61442796       6.48298324      24.58417387        2      -0.00136306      -0.01961173       0.04287263
Pt       8.42164221       6.48298340      24.58417380        2       0.00204519      -0.01875834       0.03273937
Pt      -0.00244121      -0.02257620      26.91530165        1       0.01312097       0.01040023       0.00422193
Pt       2.80909883      -0.02159442      26.91456602        1      -0.01268453       0.00832233       0.00611527
Pt       5.61475737      -0.01939707      26.91656921        1       0.00023674       0.00112259      -0.00718819
Pt       1.40292596       2.40780275      26.91611187        1       0.00102798       0.01158902      -0.00385359
Pt       4.20759320       2.40943594      26.91584394        1       0.01755248       0.00684954       0.00146840
Pt       7.02051861       2.40973961      26.91473485        1      -0.01867812       0.00722803       0.00464299
Pt       2.81010909       4.83976987      26.91794017        1      -0.01447771       0.01274639      -0.00616576
Pt       5.61416797       4.84016886      26.91932715        1       0.00153552       0.00912812      -0.01563719
Pt       8.41835333       4.84015469      26.91628593        1       0.01355294       0.01511404      -0.00397189
N        9.81043120       4.86663256      30.75004562        0      -0.00732726      -0.00013862      -0.03581915
H       10.78175420       4.86215813      30.41031663        0      -0.02454501       0.00012371       0.00834880
H        9.35381210       4.04326332      30.33617776        0       0.01584434      -0.02393602       0.01739883
H        9.35698829       5.68545718      30.32383815        0       0.01618721       0.02399853       0.01738460
