40
Lattice="8.421641763931781 0.0 0.0 4.2108208819658905 7.293355709136913 0.0 0.0 0.0 46.87624170604845" Properties=species:S:1:pos:R:3:tags:I:1:forces:R:3 charge=0 spin=0 energy=-206.42544628104332 free_energy=-206.42544628104332 stress="0.010499777272343636 3.5064083476754604e-06 -1.5150858416745905e-06 3.5064083476754604e-06 0.010546752251684666 -1.0727425433287863e-05 -1.5150858416745905e-06 -1.0727425433287863e-05 -3.3874865039251745e-05" pbc="T T T"
Pt      -0.00000003       0.00000022      19.95723434        4       0.00014413       0.00051817       0.01874482
Pt       2.80721396      -0.00000018      19.95723452        4      -0.00039745       0.00086041       0.01863986
Pt       5.61442778      -0.00000004      19.95723454        4      -0.00035022       0.00102426       0.01841829
Pt       1.40360719       2.43111838      19.95723440        4      -0.00018656       0.00101698       0.01851208
Pt       4.21082079       2.43111832      19.95723449        4      -0.00006720       0.00142183       0.01755733
Pt       7.01803484       2.43111842      19.95723441        4      -0.00025658       0.00086304       0.01754346
Pt       2.80721406       4.86223725      19.95723409        4       0.00009233       0.00125556       0.01885684
Pt       5.61442803       4.86223733      19.95723425        4       0.00030191       0.00118312       0.01829287
Pt       8.42164141       4.86223723      19.95723442        4      -0.00019252       0.00110761       0.01884087
Pt       1.40360730       0.81037260      22.29206788        3       0.00059297       0.00479952      -0.05458721
Pt       4.21082126       0.81037254      22.29206791        3      -0.00070442       0.00282368      -0.05105210
Pt       7.01803479       0.81037259      22.29206783        3       0.00061236       0.00388243      -0.05150108
Pt       2.80721452       3.24149125      22.29206775        3      -0.00034465       0.00502799      -0.05341458
Pt       5.61442760       3.24149123      22.29206789        3       0.00015684       0.00502913      -0.04563850
Pt       8.42164156       3.24149116      22.29206803        3       0.00144155       0.00404164      -0.05310001
Pt       4.21082093       5.67260998      22.29206800        3      -0.00067200       0.00421235      -0.05206249
Pt       7.01803487       5.67261039      22.29206775        3       0.00023486       0.00347088      -0.05211151
Pt       9.82524824       5.67261062      22.29206803        3       0.00003739       0.00345404      -0.05071938
Pt      -0.00000058       1.62074570      24.58417378        2      -0.01208000      -0.01550012       0.04230298
Pt       2.80721444       1.62074548      24.58417392        2       0.01434993      -0.01589830       0.04363415
Pt       5.61442778       1.62074537      24.58417373        2      -0.00053604      -0.00022629       0.04196141
Pt       1.40360636       4.05186440      24.58417384        2      -0.00029152      -0.00869765       0.02410266
Pt       4.21082088       4.05186399      24.58417380        2       0.00504835      -0.01258232       0.05287387
Pt       7.01803502       4.05186406      24.58417406        2      -0.00527430      -0.01245949       0.05264364
Pt       2.80721280       6.48298341      24.58417369        2       0.00519783      -0.01122144       0.03584260
Pt       5.61442796       6.48298324      24.58417387        2      -0.00067196      -0.01657094       0.05644255
Pt       8.42164221       6.48298340      24.58417380        2      -0.00722260      -0.01290683       0.03680546
Pt      -0.00072673      -0.01785048      26.91923490        1       0.00346141       0.01379315      -0.01561760
Pt       2.80742147      -0.01765390      26.91957073        1      -0.00227937       0.01466997      -0.01696946
Pt       5.61443928      -0.01377449      26.91235629        1       0.00073263       0.00716806       0.01370185
Pt       1.40299321       2.41280731      26.91062868        1      -0.00079515       0.00685824       0.01838144
Pt       4.21087931       2.41627838      26.92242836        1       0.00034794      -0.00289257      -0.02724076
Pt       7.01736968       2.41714460      26.92139547        1      -0.00078918      -0.00412005      -0.02372059
Pt       2.80638780       4.84549461      26.91664687        1       0.01249183       0.00802877      -0.00199698
Pt       5.61388813       4.84612767      26.92318996        1       0.00065338       0.00659674      -0.03025221
Pt       8.42177925       4.84639759      26.91729285        1      -0.01289984       0.00714447      -0.00358491
N        9.83035257       4.84217518      30.82805741        0       0.00100927       0.01141643       0.01541760
H        9.00074689       4.39721530      30.41451385        0       0.01244801      -0.00658927      -0.00768704
H        9.82608933       5.81944354      30.50920979        0      -0.00230391       0.00847237      -0.00188786
H       10.65005370       4.39851949      30.39391462        0      -0.01103928      -0.01047563      -0.00637214
