40
Lattice="8.421641763931781 0.0 0.0 4.2108208819658905 7.293355709136913 0.0 0.0 0.0 46.87624170604845" Properties=species:S:1:pos:R:3:tags:I:1:forces:R:3 charge=0 spin=0 energy=-206.4274795146859 free_energy=-206.4274795146859 stress="0.010509400628507137 4.8137320796115546e-09 1.722207443322077e-08 4.8137320796115546e-09 0.010509342886507511 -3.318480423786241e-08 1.722207443322077e-08 -3.318480423786241e-08 -1.4430278497457039e-05" pbc="T T T"
Pt      -0.00000003       0.00000022      19.95723434        4      -0.00002367       0.00031796       0.01778521
Pt       2.80721396      -0.00000018      19.95723452        4      -0.00026908      -0.00018285       0.01777554
Pt       5.61442778      -0.00000004      19.95723454        4      -0.00019281      -0.00005696       0.01859577
Pt       1.40360719       2.43111838      19.95723440        4       0.00029433      -0.00013576       0.01777132
Pt       4.21082079       2.43111832      19.95723449        4       0.00033872       0.00014195       0.01881759
Pt       7.01803484       2.43111842      19.95723441        4      -0.00028996       0.00021960       0.01881379
Pt       2.80721406       4.86223725      19.95723409        4       0.00005096       0.00019581       0.01859853
Pt       5.61442803       4.86223733      19.95723425        4      -0.00004992      -0.00036263       0.01882032
Pt       8.42164141       4.86223723      19.95723442        4       0.00014695      -0.00014093       0.01858404
Pt       1.40360730       0.81037260      22.29206788        3       0.00000055      -0.00000213      -0.04805607
Pt       4.21082126       0.81037254      22.29206791        3       0.00010348      -0.00019800      -0.05280516
Pt       7.01803479       0.81037259      22.29206783        3       0.00071653       0.00037187      -0.05321344
Pt       2.80721452       3.24149125      22.29206775        3      -0.00003116      -0.00080255      -0.05323249
Pt       5.61442760       3.24149123      22.29206789        3       0.00000437      -0.00000178      -0.04576848
Pt       8.42164156       3.24149116      22.29206803        3       0.00012894       0.00018685      -0.05283631
Pt       4.21082093       5.67260998      22.29206800        3      -0.00022522       0.00000684      -0.05281328
Pt       7.01803487       5.67261039      22.29206775        3      -0.00068732       0.00041487      -0.05322819
Pt       9.82524824       5.67261062      22.29206803        3       0.00001188      -0.00001789      -0.05313294
Pt      -0.00000058       1.62074570      24.58417378        2       0.00005610      -0.00011317       0.05517642
Pt       2.80721444       1.62074548      24.58417392        2      -0.00012445      -0.00000899       0.05515300
Pt       5.61442778       1.62074537      24.58417373        2       0.00082002       0.00921676       0.04425229
Pt       1.40360636       4.05186440      24.58417384        2      -0.00084422      -0.00632748       0.04064937
Pt       4.21082088       4.05186399      24.58417380        2       0.00756125      -0.00531680       0.04421351
Pt       7.01803502       4.05186406      24.58417406        2      -0.00839586      -0.00389767       0.04422971
Pt       2.80721280       6.48298341      24.58417369        2       0.00591540       0.00244363       0.04069045
Pt       5.61442796       6.48298324      24.58417387        2       0.00005015       0.00008223       0.05516424
Pt       8.42164221       6.48298340      24.58417380        2      -0.00506896       0.00390367       0.04068541
Pt      -0.00133598      -0.00097497      26.92017686        1       0.01255541       0.00715613      -0.02255185
Pt       2.80872436      -0.00066432      26.92017366        1      -0.01246398       0.00731942      -0.02247451
Pt       5.61429467       0.00288940      26.91398468        1      -0.00112441      -0.01425072       0.00502340
Pt       1.40342710       2.43276930      26.92015386        1      -0.00010019      -0.01446873      -0.02264029
Pt       4.20978287       2.43063635      26.92245769        1      -0.00034142       0.00155137      -0.02654401
Pt       7.01897494       2.43046755      26.92246094        1      -0.00115537      -0.00105109      -0.02659670
Pt       2.80977658       4.86091674      26.91396907        1      -0.01182450       0.00810394       0.00500760
Pt       5.61451996       4.86338304      26.92246640        1       0.00151850      -0.00048380      -0.02645875
Pt       8.41920755       4.86068522      26.91397031        1       0.01293261       0.00618465       0.00502024
N        5.61443009       3.24148522      30.84138622        0      -0.00000519       0.00000772      -0.04187622
H        4.78477642       2.78500293      30.44039682        0      -0.03678179      -0.02013949       0.01780421
H        5.63392591       4.18823045      30.44040470        0       0.00095341       0.04192970       0.01779868
H        6.42458193       2.75123194      30.44039015        0       0.03583989      -0.02179551       0.01779792
