40
Lattice="8.421641763931781 0.0 0.0 4.2108208819658905 7.293355709136913 0.0 0.0 0.0 46.87624170604845" Properties=species:S:1:pos:R:3:tags:I:1:forces:R:3 charge=0 spin=0 energy=-206.42076946219566 free_energy=-206.42076946219566 stress="0.010463719256222248 1.3993107117471482e-08 -1.2808849092493801e-08 1.3993107117471482e-08 0.010463770478963852 1.6842797379013064e-08 -1.2808849092493801e-08 1.6842797379013064e-08 -0.00010563791875028983" pbc="T T T"
Pt      -0.00000003       0.00000022      19.95723434        4       0.00023683       0.00045859       0.01761403
Pt       2.80721396      -0.00000018      19.95723452        4      -0.00051959      -0.00002395       0.01760400
Pt       5.61442778      -0.00000004      19.95723454        4      -0.00018077      -0.00071809       0.01853089
Pt       1.40360719       2.43111838      19.95723440        4       0.00028246      -0.00043323       0.01760199
Pt       4.21082079       2.43111832      19.95723449        4       0.00014681      -0.00005528       0.01898655
Pt       7.01803484       2.43111842      19.95723441        4      -0.00002472       0.00015337       0.01898250
Pt       2.80721406       4.86223725      19.95723409        4      -0.00053029       0.00051528       0.01853689
Pt       5.61442803       4.86223733      19.95723425        4      -0.00012582      -0.00009840       0.01899009
Pt       8.42164141       4.86223723      19.95723442        4       0.00071420       0.00020120       0.01852158
Pt       1.40360730       0.81037260      22.29206788        3      -0.00000437       0.00000416      -0.04150741
Pt       4.21082126       0.81037254      22.29206791        3       0.00101754       0.00080826      -0.05336461
Pt       7.01803479       0.81037259      22.29206783        3      -0.00016591       0.00110764      -0.05443883
Pt       2.80721452       3.24149125      22.29206775        3       0.00103303      -0.00039731      -0.05444713
Pt       5.61442760       3.24149123      22.29206789        3       0.00000067       0.00000242      -0.04835943
Pt       8.42164156       3.24149116      22.29206803        3      -0.00119591       0.00048794      -0.05338475
Pt       4.21082093       5.67260998      22.29206800        3       0.00017511      -0.00127927      -0.05336058
Pt       7.01803487       5.67261039      22.29206775        3      -0.00088078      -0.00070578      -0.05444878
Pt       9.82524824       5.67261062      22.29206803        3       0.00000935      -0.00000943      -0.05032710
Pt      -0.00000058       1.62074570      24.58417378        2       0.00772817      -0.00433090       0.04758685
Pt       2.80721444       1.62074548      24.58417392        2      -0.00762306      -0.00450645       0.04757880
Pt       5.61442778       1.62074537      24.58417373        2       0.00191723       0.00779582       0.03286930
Pt       1.40360636       4.05186440      24.58417384        2      -0.00114471      -0.00608952       0.02980476
Pt       4.21082088       4.05186399      24.58417380        2       0.00577178      -0.00554658       0.03285197
Pt       7.01803502       4.05186406      24.58417406        2      -0.00769385      -0.00222115       0.03284063
Pt       2.80721280       6.48298341      24.58417369        2       0.00587117       0.00204710       0.02982181
Pt       5.61442796       6.48298324      24.58417387        2      -0.00009863       0.00882973       0.04756541
Pt       8.42164221       6.48298340      24.58417380        2      -0.00471536       0.00404243       0.02981038
Pt      -0.00505997      -0.00274461      26.91986480        1       0.03756157       0.02039964      -0.01907427
Pt       2.81211979      -0.00301160      26.91986884        1      -0.03647090       0.02229295      -0.01902007
Pt       5.61437854       0.00166720      26.91333237        1      -0.00106510      -0.00792139       0.01381771
Pt       1.40376230       2.43687407      26.91986079        1      -0.00109422      -0.04271161      -0.01918784
Pt       4.20588895       2.42825252      26.91723566        1       0.02021484       0.01358762      -0.01468035
Pt       7.02298348       2.42828187      26.91723195        1      -0.02186140       0.01071745      -0.01470189
Pt       2.80868376       4.86144618      26.91333153        1      -0.00632082       0.00487592       0.01370100
Pt       5.61441119       4.86794029      26.91723943        1       0.00165454      -0.02432347      -0.01465257
Pt       8.42022202       4.86136160      26.91333173        1       0.00738165       0.00304520       0.01373096
N        5.61442780       3.24149231      30.63974637        0       0.00003570      -0.00003200      -0.02325982
H        5.61596710       2.29270585      30.24403447        0       0.00007230      -0.03775325       0.01696165
H        4.79198590       3.71455035      30.24403155        0      -0.03277485       0.01883642       0.01694376
H        6.43532991       3.71721710      30.24402924        0       0.03266594       0.01894768       0.01696195
