40
Lattice="8.421641763931781 0.0 0.0 4.2108208819658905 7.293355709136913 0.0 0.0 0.0 46.87624170604845" Properties=species:S:1:pos:R:3:tags:I:1:forces:R:3 charge=0 spin=0 energy=-206.42695880850914 free_energy=-206.42695880850914 stress="0.010526623576879501 -7.327711273319437e-07 7.587083672433437e-08 -7.327711273319437e-07 0.010525980964303017 1.1098239838247537e-06 7.587083672433437e-08 1.1098239838247537e-06 -2.2357999114319682e-05" pbc="T T T"
Pt      -0.00000003       0.00000022      19.95723434        4      -0.00034600       0.00017896       0.01802207
Pt       2.80721396      -0.00000018      19.95723452        4       0.00000387      -0.00039852       0.01800262
Pt       5.61442778      -0.00000004      19.95723454        4      -0.00015415      -0.00008263       0.01847158
Pt       1.40360719       2.43111838      19.95723440        4       0.00034106       0.00021201       0.01799632
Pt       4.21082079       2.43111832      19.95723449        4       0.00007072      -0.00006111       0.01872236
Pt       7.01803484       2.43111842      19.95723441        4       0.00002201       0.00009472       0.01872119
Pt       2.80721406       4.86223725      19.95723409        4       0.00001283       0.00018501       0.01847675
Pt       5.61442803       4.86223733      19.95723425        4      -0.00009612      -0.00002563       0.01871064
Pt       8.42164141       4.86223723      19.95723442        4       0.00015806      -0.00010125       0.01846276
Pt       1.40360730       0.81037260      22.29206788        3       0.00002690       0.00003182      -0.04623387
Pt       4.21082126       0.81037254      22.29206791        3       0.00097318       0.00028675      -0.05237516
Pt       7.01803479       0.81037259      22.29206783        3      -0.00024909       0.00060342      -0.05212981
Pt       2.80721452       3.24149125      22.29206775        3       0.00062645      -0.00011703      -0.05213243
Pt       5.61442760       3.24149123      22.29206789        3       0.00001885       0.00002206      -0.05149263
Pt       8.42164156       3.24149116      22.29206803        3      -0.00072219       0.00068804      -0.05236955
Pt       4.21082093       5.67260998      22.29206800        3      -0.00021528      -0.00104286      -0.05233235
Pt       7.01803487       5.67261039      22.29206775        3      -0.00041987      -0.00051785      -0.05217028
Pt       9.82524824       5.67261062      22.29206803        3       0.00000035      -0.00001709      -0.05450499
Pt      -0.00000058       1.62074570      24.58417378        2       0.00882762      -0.00435401       0.05322532
Pt       2.80721444       1.62074548      24.58417392        2      -0.00828673      -0.00542083       0.05308971
Pt       5.61442778       1.62074537      24.58417373        2       0.00092079      -0.00389253       0.02994125
Pt       1.40360636       4.05186440      24.58417384        2      -0.00104859      -0.00972187       0.05033032
Pt       4.21082088       4.05186399      24.58417380        2      -0.00405334       0.00112896       0.02954128
Pt       7.01803502       4.05186406      24.58417406        2       0.00316270       0.00247145       0.02961472
Pt       2.80721280       6.48298341      24.58417369        2       0.00891492       0.00405913       0.05042119
Pt       5.61442796       6.48298324      24.58417387        2      -0.00072539       0.01021201       0.05266727
Pt       8.42164221       6.48298340      24.58417380        2      -0.00781524       0.00579594       0.05034292
Pt       0.00039932       0.00086106      26.92336302        1      -0.00021434      -0.00142411      -0.03332230
Pt       2.80629845       0.00002671      26.92330411        1       0.00158605       0.00090083      -0.03312139
Pt       5.61404516       0.00048251      26.91623075        1       0.00030241      -0.00491116      -0.00414696
Pt       1.40405602       2.43037358      26.92334860        1      -0.00130341       0.00092804      -0.03312745
Pt       4.21134081       2.43168065      26.91504486        1      -0.01303168      -0.00697795       0.00555709
Pt       7.01731306       2.43132052      26.91513896        1       0.01255314      -0.00768708       0.00531907
Pt       2.80772047       4.86237901      26.91618370        1      -0.00432229       0.00212006      -0.00396231
Pt       5.61461138       4.86160689      26.91481260        1       0.00046862       0.01463105       0.00638298
Pt       8.42144014       4.86171687      26.91618984        1       0.00405495       0.00274668      -0.00397808
N        5.61445830       3.24677755      31.01127494        0       0.00009713      -0.00169924       0.02989572
H        6.56428830       3.23524750      30.61825480        0       0.00888852       0.00031034      -0.01150656
H        5.13595676       2.41927428      30.63308457        0      -0.00715168      -0.00728658      -0.01108332
H        5.14305703       4.06421389      30.60337892        0      -0.00187572       0.00813187      -0.01192594
