40
Lattice="8.421641763931781 0.0 0.0 4.2108208819658905 7.293355709136913 0.0 0.0 0.0 46.87624170604845" Properties=species:S:1:pos:R:3:tags:I:1:forces:R:3 charge=0 spin=0 energy=-206.42698932608727 free_energy=-206.42698932608727 stress="0.01052476093173027 -6.945691097826057e-07 7.158373449556166e-08 -6.945691097826057e-07 0.010525026358664036 -7.0848744826435e-07 7.158373449556166e-08 -7.0848744826435e-07 -2.2883492420078255e-05" pbc="T T T"
Pt      -0.00000003       0.00000022      19.95723434        4      -0.00030628       0.00014151       0.01805266
Pt       2.80721396      -0.00000018      19.95723452        4       0.00002618      -0.00033542       0.01804045
Pt       5.61442778      -0.00000004      19.95723454        4      -0.00015027      -0.00011628       0.01847039
Pt       1.40360719       2.43111838      19.95723440        4       0.00028259       0.00019289       0.01804338
Pt       4.21082079       2.43111832      19.95723449        4       0.00014240      -0.00012236       0.01867961
Pt       7.01803484       2.43111842      19.95723441        4       0.00003696       0.00017718       0.01867382
Pt       2.80721406       4.86223725      19.95723409        4      -0.00002241       0.00018851       0.01848222
Pt       5.61442803       4.86223733      19.95723425        4      -0.00017832      -0.00006444       0.01869617
Pt       8.42164141       4.86223723      19.95723442        4       0.00018150      -0.00007834       0.01846583
Pt       1.40360730       0.81037260      22.29206788        3       0.00000738      -0.00002687      -0.04625701
Pt       4.21082126       0.81037254      22.29206791        3       0.00112951       0.00029433      -0.05191965
Pt       7.01803479       0.81037259      22.29206783        3      -0.00014648       0.00072545      -0.05268056
Pt       2.80721452       3.24149125      22.29206775        3       0.00071474      -0.00022545      -0.05268511
Pt       5.61442760       3.24149123      22.29206789        3       0.00001132      -0.00001107      -0.05137019
Pt       8.42164156       3.24149116      22.29206803        3      -0.00083041       0.00083110      -0.05193068
Pt       4.21082093       5.67260998      22.29206800        3      -0.00030779      -0.00112165      -0.05190132
Pt       7.01803487       5.67261039      22.29206775        3      -0.00055066      -0.00049156      -0.05271682
Pt       9.82524824       5.67261062      22.29206803        3       0.00000768      -0.00001356      -0.05438774
Pt      -0.00000058       1.62074570      24.58417378        2       0.00853658      -0.00543159       0.05308086
Pt       2.80721444       1.62074548      24.58417392        2      -0.00902840      -0.00465305       0.05294573
Pt       5.61442778       1.62074537      24.58417373        2       0.00053726      -0.00415885       0.02973907
Pt       1.40360636       4.05186440      24.58417384        2      -0.00136232      -0.00988348       0.05030824
Pt       4.21082088       4.05186399      24.58417380        2      -0.00382554       0.00173190       0.02975611
Pt       7.01803502       4.05186406      24.58417406        2       0.00327999       0.00257754       0.02980534
Pt       2.80721280       6.48298341      24.58417369        2       0.00926385       0.00373573       0.05033862
Pt       5.61442796       6.48298324      24.58417387        2       0.00037900       0.00997656       0.05315618
Pt       8.42164221       6.48298340      24.58417380        2      -0.00785799       0.00613153       0.05029303
Pt       0.00123958      -0.00066208      26.92347812        1      -0.00335403       0.00205214      -0.03364706
Pt       2.80714746       0.00140715      26.92342557        1      -0.00019562      -0.00412844      -0.03345438
Pt       5.61439054       0.00038375      26.91621133        1      -0.00158619      -0.00483808      -0.00393769
Pt       1.40240217       2.43038299      26.92346575        1       0.00359272       0.00184225      -0.03370788
Pt       4.21085618       2.43229469      26.91490402        1      -0.01156901      -0.00869084       0.00615304
Pt       7.01701143       2.43058965      26.91494278        1       0.01321073      -0.00570075       0.00597717
Pt       2.80753542       4.86211021      26.91620519        1      -0.00338290       0.00371051      -0.00391958
Pt       5.61538090       4.86159341      26.91501628        1      -0.00165694       0.01441045       0.00574267
Pt       8.42131716       4.86202667      26.91618592        1       0.00500061       0.00108936      -0.00387278
N        5.61447317       3.23881554      31.01240126        0      -0.00005277       0.00113386       0.03328299
H        6.09895254       2.42558592      30.61172441        0       0.00697381      -0.00977440      -0.01289596
H        4.66480848       3.23146260      30.61913654        0      -0.01288940      -0.00369670      -0.01260660
H        6.07953462       4.07032015      30.62656611        0       0.00593877       0.01262019      -0.01229223
