40
Lattice="8.421641763931781 0.0 0.0 4.2108208819658905 7.293355709136913 0.0 0.0 0.0 46.87624170604845" Properties=species:S:1:pos:R:3:tags:I:1:forces:R:3 charge=0 spin=0 energy=-206.42485118826988 free_energy=-206.42485118826988 stress="0.010533221065998077 -1.4461477348959306e-08 4.417275789592168e-08 -1.4461477348959306e-08 0.010533125139772892 -1.7514263106477301e-07 4.417275789592168e-08 -1.7514263106477301e-07 -8.375303877983242e-06" pbc="T T T"
Pt      -0.00000003       0.00000022      19.95723434        4      -0.00042346       0.00010215       0.01808432
Pt       2.80721396      -0.00000018      19.95723452        4       0.00011655      -0.00041932       0.01807247
Pt       5.61442778      -0.00000004      19.95723454        4      -0.00015082      -0.00023287       0.01844772
Pt       1.40360719       2.43111838      19.95723440        4       0.00030526       0.00031586       0.01807101
Pt       4.21082079       2.43111832      19.95723449        4       0.00003665      -0.00016037       0.01870907
Pt       7.01803484       2.43111842      19.95723441        4       0.00012311       0.00010774       0.01870635
Pt       2.80721406       4.86223725      19.95723409        4      -0.00012328       0.00024765       0.01845737
Pt       5.61442803       4.86223733      19.95723425        4      -0.00015908       0.00004811       0.01871846
Pt       8.42164141       4.86223723      19.95723442        4       0.00028235      -0.00001823       0.01844259
Pt       1.40360730       0.81037260      22.29206788        3       0.00000124      -0.00000836      -0.04577475
Pt       4.21082126       0.81037254      22.29206791        3       0.00126491       0.00065734      -0.05199562
Pt       7.01803479       0.81037259      22.29206783        3      -0.00047228       0.00091542      -0.05235162
Pt       2.80721452       3.24149125      22.29206775        3       0.00103791      -0.00005586      -0.05235653
Pt       5.61442760       3.24149123      22.29206789        3       0.00000963      -0.00000621      -0.05320513
Pt       8.42164156       3.24149116      22.29206803        3      -0.00119861       0.00076197      -0.05200521
Pt       4.21082093       5.67260998      22.29206800        3      -0.00005704      -0.00143516      -0.05198158
Pt       7.01803487       5.67261039      22.29206775        3      -0.00056368      -0.00088677      -0.05238131
Pt       9.82524824       5.67261062      22.29206803        3       0.00000870      -0.00001703      -0.05380884
Pt      -0.00000058       1.62074570      24.58417378        2       0.01028860      -0.00590123       0.05386153
Pt       2.80721444       1.62074548      24.58417392        2      -0.01027329      -0.00591742       0.05376538
Pt       5.61442778       1.62074537      24.58417373        2       0.00100444      -0.00701642       0.02935617
Pt       1.40360636       4.05186440      24.58417384        2      -0.00133419      -0.00942832       0.05432086
Pt       4.21082088       4.05186399      24.58417380        2      -0.00661693       0.00267251       0.02926164
Pt       7.01803502       4.05186406      24.58417406        2       0.00558987       0.00432046       0.02929368
Pt       2.80721280       6.48298341      24.58417369        2       0.00883926       0.00356116       0.05437800
Pt       5.61442796       6.48298324      24.58417387        2      -0.00009792       0.01187207       0.05375718
Pt       8.42164221       6.48298340      24.58417380        2      -0.00744498       0.00588190       0.05431916
Pt       0.00081578       0.00000956      26.92408739        1      -0.00213434       0.00026412      -0.03631705
Pt       2.80680194       0.00072781      26.92402733        1       0.00087617      -0.00196387      -0.03607115
Pt       5.61424962      -0.00020322      26.91766862        1      -0.00040429      -0.00247488      -0.00901202
Pt       1.40319629       2.43042532      26.92406947        1       0.00126854       0.00171557      -0.03634827
Pt       4.21125933       2.43213303      26.91385381        1      -0.01424447      -0.00924236       0.01014851
Pt       7.01697488       2.43099912      26.91388579        1       0.01503054      -0.00763936       0.01003613
Pt       2.80709154       4.86253303      26.91765060        1      -0.00193562       0.00151871      -0.00907039
Pt       5.61505529       4.86137702      26.91384201        1      -0.00083558       0.01691428       0.01018331
Pt       8.42191481       4.86220033      26.91763779        1       0.00238443       0.00094443      -0.00899942
N        5.61442934       3.24149321      31.02484157        0      -0.00011209      -0.00004251       0.02669284
H        6.43020627       3.72782113      30.63137209        0       0.00678162       0.00416564      -0.01116997
H        5.62771130       2.29184330      30.63137011        0       0.00022468      -0.00785698      -0.01111973
H        4.78536517       3.70481383      30.63137340        0      -0.00689260       0.00373665      -0.01111502
