40
Lattice="8.421641763931781 0.0 0.0 4.2108208819658905 7.293355709136913 0.0 0.0 0.0 46.87624170604845" Properties=species:S:1:pos:R:3:tags:I:1:forces:R:3 charge=0 spin=0 energy=-206.42405963858727 free_energy=-206.42405963858727 stress="0.01043466292321682 -4.967640188091593e-10 6.922706297096681e-10 -4.967640188091593e-10 0.010434680618345737 -9.264643274775608e-09 6.922706297096681e-10 -9.264643274775608e-09 -0.00020321087504271418" pbc="T T T"
Pt      -0.00000003       0.00000022      19.95723434        4      -0.00010293       0.00023214       0.01773856
Pt       2.80721396      -0.00000018      19.95723452        4      -0.00015393      -0.00020626       0.01772826
Pt       5.61442778      -0.00000004      19.95723454        4      -0.00011625      -0.00059104       0.01842616
Pt       1.40360719       2.43111838      19.95723440        4       0.00025783      -0.00002616       0.01773019
Pt       4.21082079       2.43111832      19.95723449        4       0.00011195      -0.00010903       0.01883101
Pt       7.01803484       2.43111842      19.95723441        4       0.00003891       0.00014884       0.01882789
Pt       2.80721406       4.86223725      19.95723409        4      -0.00045284       0.00039616       0.01843610
Pt       5.61442803       4.86223733      19.95723425        4      -0.00015327      -0.00003980       0.01883583
Pt       8.42164141       4.86223723      19.95723442        4       0.00057282       0.00019402       0.01842145
Pt       1.40360730       0.81037260      22.29206788        3      -0.00000357       0.00000186      -0.04357061
Pt       4.21082126       0.81037254      22.29206791        3       0.00104691       0.00126258      -0.05255880
Pt       7.01803479       0.81037259      22.29206783        3      -0.00028718       0.00144077      -0.05327369
Pt       2.80721452       3.24149125      22.29206775        3       0.00138644      -0.00046053      -0.05328206
Pt       5.61442760       3.24149123      22.29206789        3       0.00000317       0.00000155      -0.05179628
Pt       8.42164156       3.24149116      22.29206803        3      -0.00160263       0.00028252      -0.05257933
Pt       4.21082093       5.67260998      22.29206800        3       0.00055528      -0.00153459      -0.05255955
Pt       7.01803487       5.67261039      22.29206775        3      -0.00110746      -0.00098170      -0.05328204
Pt       9.82524824       5.67261062      22.29206803        3       0.00001091      -0.00000961      -0.04969686
Pt      -0.00000058       1.62074570      24.58417378        2       0.00645582      -0.00361606       0.02216456
Pt       2.80721444       1.62074548      24.58417392        2      -0.00635413      -0.00379302       0.02216936
Pt       5.61442778       1.62074537      24.58417373        2       0.00149632      -0.00140302       0.01833400
Pt       1.40360636       4.05186440      24.58417384        2      -0.00121640      -0.00155140       0.02240980
Pt       4.21082088       4.05186399      24.58417380        2      -0.00196165      -0.00059603       0.01831208
Pt       7.01803502       4.05186406      24.58417406        2       0.00045513       0.00201480       0.01830523
Pt       2.80721280       6.48298341      24.58417369        2       0.00198017      -0.00027328       0.02245089
Pt       5.61442796       6.48298324      24.58417387        2      -0.00009723       0.00737542       0.02218338
Pt       8.42164221       6.48298340      24.58417380        2      -0.00076756       0.00184282       0.02245132
Pt      -0.00282979      -0.00169850      26.91417167        1       0.01857773       0.01029119       0.00564481
Pt       2.81009513      -0.00160226      26.91418028        1      -0.01819802       0.01094504       0.00565811
Pt       5.61413017      -0.00029771      26.91388111        1      -0.00005797       0.00261228       0.01206180
Pt       1.40355011       2.43442018      26.91415687        1      -0.00036065      -0.02125455       0.00553561
Pt       4.20734257       2.42954450      26.91129418        1       0.01505748       0.00904600       0.01538181
Pt       7.02113767       2.42889932      26.91128787        1      -0.01536068       0.00852090       0.01538931
Pt       2.80710256       4.86264295      26.91387098        1       0.00223637      -0.00124773       0.01197480
Pt       5.61479749       4.86603280      26.91130096        1       0.00030197      -0.01758466       0.01543113
Pt       8.42204548       4.86213070      26.91387375        1      -0.00219336      -0.00133233       0.01199592
N        5.61443071       3.24148988      30.78480911        0      -0.00001766       0.00001495       0.00164618
H        5.62001176       2.28998235      30.39404973        0      -0.00001017       0.02023154       0.00270415
H        4.78760888       3.71240907      30.39405100        0       0.01754414      -0.01011651       0.00271473
H        6.43566790       3.72207761      30.39404661        0      -0.01751386      -0.01012813       0.00270465
