40
Lattice="8.421641763931781 0.0 0.0 4.2108208819658905 7.293355709136913 0.0 0.0 0.0 46.87624170604845" Properties=species:S:1:pos:R:3:tags:I:1:forces:R:3 charge=0 spin=0 energy=-206.42434383353356 free_energy=-206.42434383353356 stress="0.010479114949703217 6.952625142275792e-10 1.8194658224501836e-08 6.952625142275792e-10 0.010479098185896873 -1.9527186978507416e-08 1.8194658224501836e-08 -1.9527186978507416e-08 -6.821898568887264e-05" pbc="T T T"
Pt      -0.00000003       0.00000022      19.95723434        4      -0.00016060       0.00020407       0.01792272
Pt       2.80721396      -0.00000018      19.95723452        4      -0.00010176      -0.00024280       0.01791257
Pt       5.61442778      -0.00000004      19.95723454        4      -0.00017478      -0.00049992       0.01845334
Pt       1.40360719       2.43111838      19.95723440        4       0.00026245       0.00003904       0.01790896
Pt       4.21082079       2.43111832      19.95723449        4       0.00033152       0.00010602       0.01877232
Pt       7.01803484       2.43111842      19.95723441        4      -0.00025688       0.00023149       0.01876963
Pt       2.80721406       4.86223725      19.95723409        4      -0.00034244       0.00040171       0.01845775
Pt       5.61442803       4.86223733      19.95723425        4      -0.00007721      -0.00033775       0.01877688
Pt       8.42164141       4.86223723      19.95723442        4       0.00052146       0.00009671       0.01844340
Pt       1.40360730       0.81037260      22.29206788        3      -0.00000184       0.00000340      -0.04616242
Pt       4.21082126       0.81037254      22.29206791        3       0.00055394       0.00065566      -0.05288137
Pt       7.01803479       0.81037259      22.29206783        3       0.00013475       0.00104723      -0.05338367
Pt       2.80721452       3.24149125      22.29206775        3       0.00083491      -0.00063311      -0.05339957
Pt       5.61442760       3.24149123      22.29206789        3       0.00000223       0.00000235      -0.04872136
Pt       8.42164156       3.24149116      22.29206803        3      -0.00083479       0.00016047      -0.05290904
Pt       4.21082093       5.67260998      22.29206800        3       0.00028016      -0.00080686      -0.05288526
Pt       7.01803487       5.67261039      22.29206775        3      -0.00097838      -0.00041674      -0.05339932
Pt       9.82524824       5.67261062      22.29206803        3       0.00000995      -0.00001349      -0.05050212
Pt      -0.00000058       1.62074570      24.58417378        2       0.00493342      -0.00293586       0.04805151
Pt       2.80721444       1.62074548      24.58417392        2      -0.00499998      -0.00282256       0.04804598
Pt       5.61442778       1.62074537      24.58417373        2       0.00146772       0.00502622       0.03288290
Pt       1.40360636       4.05186440      24.58417384        2      -0.00107296      -0.00373214       0.03621507
Pt       4.21082088       4.05186399      24.58417380        2       0.00361043      -0.00377960       0.03284214
Pt       7.01803502       4.05186406      24.58417406        2      -0.00509174      -0.00123039       0.03286156
Pt       2.80721280       6.48298341      24.58417369        2       0.00379202       0.00094923       0.03625568
Pt       5.61442796       6.48298324      24.58417387        2       0.00006569       0.00571692       0.04806188
Pt       8.42164221       6.48298340      24.58417380        2      -0.00271301       0.00281361       0.03627164
Pt      -0.00338842      -0.00214393      26.91893258        1       0.02564265       0.01523650      -0.01869494
Pt       2.81075828      -0.00186144      26.91893451        1      -0.02599800       0.01457105      -0.01865546
Pt       5.61411896       0.00283688      26.91427671        1       0.00021572      -0.01690403       0.00762263
Pt       1.40344338       2.43512681      26.91890892        1       0.00040338      -0.02983932      -0.01877885
Pt       4.20927556       2.43041814      26.91806123        1       0.00068252       0.00195772      -0.00922871
Pt       7.01941908       2.43013462      26.91806152        1      -0.00205662      -0.00038582      -0.00926149
Pt       2.80982436       4.86109306      26.91426031        1      -0.01480515       0.00824071       0.00755604
Pt       5.61458351       4.86392525      26.91806962        1       0.00139725      -0.00159143      -0.00920475
Pt       8.41934145       4.86054920      26.91426425        1       0.01453201       0.00871030       0.00755638
N        5.61442955       3.24149061      30.85921952        0      -0.00006685       0.00009224      -0.02276805
H        4.78843496       3.70519388      30.45955586        0      -0.03490656       0.01936040       0.01042457
H        6.42900305       3.72496980      30.45955515        0       0.03427569       0.02057819       0.01039794
H        5.62584613       2.29430931      30.45955759        0       0.00068973      -0.04002945       0.01037274
