40
Lattice="8.421641763931781 0.0 0.0 4.2108208819658905 7.293355709136913 0.0 0.0 0.0 46.87624170604845" Properties=species:S:1:pos:R:3:tags:I:1:forces:R:3 charge=0 spin=0 energy=-206.42468143424156 free_energy=-206.42468143424156 stress="0.01046048291027546 -7.85846836492965e-08 1.6680776759869786e-09 -7.85846836492965e-08 0.010460393503308296 -2.9458324668496516e-10 1.6680776759869786e-09 -2.9458324668496516e-10 -0.00015499272558372468" pbc="T T T"
Pt      -0.00000003       0.00000022      19.95723434        4      -0.00000467       0.00034644       0.01769914
Pt       2.80721396      -0.00000018      19.95723452        4      -0.00030323      -0.00017866       0.01768878
Pt       5.61442778      -0.00000004      19.95723454        4      -0.00015467      -0.00055391       0.01844825
Pt       1.40360719       2.43111838      19.95723440        4       0.00030739      -0.00016941       0.01768833
Pt       4.21082079       2.43111832      19.95723449        4       0.00005899      -0.00008857       0.01892030
Pt       7.01803484       2.43111842      19.95723441        4       0.00004683       0.00009236       0.01891678
Pt       2.80721406       4.86223725      19.95723409        4      -0.00040123       0.00040986       0.01845529
Pt       5.61442803       4.86223733      19.95723425        4      -0.00010974      -0.00000591       0.01892393
Pt       8.42164141       4.86223723      19.95723442        4       0.00055899       0.00014065       0.01844049
Pt       1.40360730       0.81037260      22.29206788        3      -0.00000368       0.00000210      -0.04380919
Pt       4.21082126       0.81037254      22.29206791        3       0.00069967       0.00079893      -0.05300365
Pt       7.01803479       0.81037259      22.29206783        3      -0.00006983       0.00122218      -0.05327625
Pt       2.80721452       3.24149125      22.29206775        3       0.00108699      -0.00054624      -0.05328494
Pt       5.61442760       3.24149123      22.29206789        3       0.00000065       0.00000028      -0.05023375
Pt       8.42164156       3.24149116      22.29206803        3      -0.00103386       0.00020934      -0.05302219
Pt       4.21082093       5.67260998      22.29206800        3       0.00032932      -0.00100901      -0.05299976
Pt       7.01803487       5.67261039      22.29206775        3      -0.00103238      -0.00068595      -0.05328807
Pt       9.82524824       5.67261062      22.29206803        3       0.00000842      -0.00001433      -0.05017905
Pt      -0.00000058       1.62074570      24.58417378        2       0.00576651      -0.00276932       0.03449951
Pt       2.80721444       1.62074548      24.58417392        2      -0.00528515      -0.00359232       0.03448315
Pt       5.61442778       1.62074537      24.58417373        2       0.00155249       0.00358021       0.02715004
Pt       1.40360636       4.05186440      24.58417384        2      -0.00143105      -0.00426607       0.02119799
Pt       4.21082088       4.05186399      24.58417380        2       0.00230589      -0.00311204       0.02712046
Pt       7.01803502       4.05186406      24.58417406        2      -0.00384881      -0.00044289       0.02711468
Pt       2.80721280       6.48298341      24.58417369        2       0.00444320       0.00090944       0.02123640
Pt       5.61442796       6.48298324      24.58417387        2      -0.00047231       0.00637940       0.03447249
Pt       8.42164221       6.48298340      24.58417380        2      -0.00299206       0.00339376       0.02122053
Pt      -0.00451971      -0.00170639      26.91604135        1       0.03216938       0.01566304      -0.00319668
Pt       2.81097188      -0.00304560      26.91604251        1      -0.02967127       0.02000920      -0.00313767
Pt       5.61468278      -0.00063630      26.91305187        1      -0.00267878       0.00988277       0.01618823
Pt       1.40438706       2.43590705      26.91602685        1      -0.00252830      -0.03571276      -0.00330290
Pt       4.20752031       2.42886905      26.91485301        1       0.01509968       0.01094158      -0.00132332
Pt       7.02165138       2.42939823      26.91485411        1      -0.01701275       0.00761465      -0.00137076
Pt       2.80652983       4.86235498      26.91303990        1       0.00987887      -0.00260352       0.01610515
Pt       5.61412843       4.86624366      26.91484788        1       0.00191518      -0.01857829      -0.00127375
Pt       8.42208491       4.86278885      26.91304152        1      -0.00719593      -0.00726303       0.01611491
N        5.61437845       3.24158340      30.74535569        0       0.00001075       0.00000643      -0.04118114
H        5.02082861       3.98403131      30.35082226        0       0.01495102      -0.01607888       0.01863635
H        6.55437294       3.38401833      30.35127192        0      -0.02126877      -0.00459667       0.01860480
H        5.26800481       2.35595933      30.35182568        0       0.00630846       0.02066508       0.01855677
