40
Lattice="8.421641763931781 0.0 0.0 4.2108208819658905 7.293355709136913 0.0 0.0 0.0 46.87624170604845" Properties=species:S:1:pos:R:3:tags:I:1:forces:R:3 charge=0 spin=0 energy=-206.42434192618492 free_energy=-206.42434192618492 stress="0.010479111224412918 1.375105473933047e-09 1.637146418431712e-08 1.375105473933047e-09 0.010479124262928963 1.2147877370694005e-08 1.637146418431712e-08 1.2147877370694005e-08 -6.8206041760277e-05" pbc="T T T"
Pt      -0.00000003       0.00000022      19.95723434        4      -0.00016050       0.00020398       0.01792281
Pt       2.80721396      -0.00000018      19.95723452        4      -0.00010174      -0.00024295       0.01791272
Pt       5.61442778      -0.00000004      19.95723454        4      -0.00017478      -0.00049997       0.01845353
Pt       1.40360719       2.43111838      19.95723440        4       0.00026246       0.00003914       0.01790905
Pt       4.21082079       2.43111832      19.95723449        4       0.00033143       0.00010612       0.01877238
Pt       7.01803484       2.43111842      19.95723441        4      -0.00025705       0.00023134       0.01876937
Pt       2.80721406       4.86223725      19.95723409        4      -0.00034234       0.00040152       0.01845788
Pt       5.61442803       4.86223733      19.95723425        4      -0.00007722      -0.00033803       0.01877677
Pt       8.42164141       4.86223723      19.95723442        4       0.00052148       0.00009673       0.01844342
Pt       1.40360730       0.81037260      22.29206788        3      -0.00000166       0.00000359      -0.04616397
Pt       4.21082126       0.81037254      22.29206791        3       0.00055409       0.00065590      -0.05288069
Pt       7.01803479       0.81037259      22.29206783        3       0.00013509       0.00104751      -0.05338394
Pt       2.80721452       3.24149125      22.29206775        3       0.00083478      -0.00063291      -0.05339974
Pt       5.61442760       3.24149123      22.29206789        3       0.00000222       0.00000283      -0.04872126
Pt       8.42164156       3.24149116      22.29206803        3      -0.00083435       0.00016041      -0.05290918
Pt       4.21082093       5.67260998      22.29206800        3       0.00028025      -0.00080619      -0.05288468
Pt       7.01803487       5.67261039      22.29206775        3      -0.00097809      -0.00041606      -0.05339850
Pt       9.82524824       5.67261062      22.29206803        3       0.00000964      -0.00001295      -0.05050120
Pt      -0.00000058       1.62074570      24.58417378        2       0.00493250      -0.00293722       0.04805018
Pt       2.80721444       1.62074548      24.58417392        2      -0.00499775      -0.00282199       0.04804540
Pt       5.61442778       1.62074537      24.58417373        2       0.00146595       0.00502750       0.03288576
Pt       1.40360636       4.05186440      24.58417384        2      -0.00107291      -0.00372969       0.03621241
Pt       4.21082088       4.05186399      24.58417380        2       0.00361227      -0.00378050       0.03284758
Pt       7.01803502       4.05186406      24.58417406        2      -0.00509351      -0.00122956       0.03286336
Pt       2.80721280       6.48298341      24.58417369        2       0.00379141       0.00094799       0.03625656
Pt       5.61442796       6.48298324      24.58417387        2       0.00006457       0.00571478       0.04806422
Pt       8.42164221       6.48298340      24.58417380        2      -0.00271156       0.00281266       0.03626952
Pt      -0.00338930      -0.00214420      26.91893135        1       0.02564301       0.01524358      -0.01869613
Pt       2.81075894      -0.00186178      26.91893284        1      -0.02600217       0.01457710      -0.01865438
Pt       5.61411842       0.00283728      26.91427636        1       0.00021812      -0.01690467       0.00762239
Pt       1.40344340       2.43512760      26.91890731        1       0.00040607      -0.02984543      -0.01877124
Pt       4.20927574       2.43041841      26.91806234        1       0.00068388       0.00195714      -0.00923541
Pt       7.01941854       2.43013480      26.91806279        1      -0.00205724      -0.00038724      -0.00925998
Pt       2.80982479       4.86109273      26.91426098        1      -0.01480534       0.00824301       0.00755564
Pt       5.61458342       4.86392486      26.91807140        1       0.00139569      -0.00159102      -0.00921234
Pt       8.41934098       4.86054897      26.91426402        1       0.01453096       0.00871001       0.00755585
N        5.61442898       3.24149127      30.85927911        0      -0.00005208      -0.00004704      -0.02281843
H        5.62584708       2.29431006      30.45961263        0       0.00068706      -0.03994234       0.01042495
H        4.78843681       3.70519264      30.45961237        0      -0.03494452       0.01938428       0.01041942
H        6.42900146       3.72496929      30.45961120        0       0.03430185       0.02059852       0.01040006
