40
Lattice="8.421641763931781 0.0 0.0 4.2108208819658905 7.293355709136913 0.0 0.0 0.0 46.87624170604845" Properties=species:S:1:pos:R:3:tags:I:1:forces:R:3 charge=0 spin=0 energy=-206.42468143424156 free_energy=-206.42468143424156 stress="0.010460476391017437 -7.781181210475552e-08 1.4913277723849205e-08 -7.781181210475552e-08 0.010460402816534042 -1.7674995911320934e-09 1.4913277723849205e-08 -1.7674995911320934e-09 -0.0001549842272652313" pbc="T T T"
Pt      -0.00000003       0.00000022      19.95723434        4      -0.00000471       0.00034662       0.01769942
Pt       2.80721396      -0.00000018      19.95723452        4      -0.00030322      -0.00017878       0.01768897
Pt       5.61442778      -0.00000004      19.95723454        4      -0.00015461      -0.00055385       0.01844834
Pt       1.40360719       2.43111838      19.95723440        4       0.00030730      -0.00016949       0.01768823
Pt       4.21082079       2.43111832      19.95723449        4       0.00005906      -0.00008862       0.01892039
Pt       7.01803484       2.43111842      19.95723441        4       0.00004686       0.00009224       0.01891678
Pt       2.80721406       4.86223725      19.95723409        4      -0.00040122       0.00040987       0.01845527
Pt       5.61442803       4.86223733      19.95723425        4      -0.00010974      -0.00000600       0.01892399
Pt       8.42164141       4.86223723      19.95723442        4       0.00055885       0.00014056       0.01844047
Pt       1.40360730       0.81037260      22.29206788        3      -0.00000336       0.00000209      -0.04380919
Pt       4.21082126       0.81037254      22.29206791        3       0.00070004       0.00079887      -0.05300270
Pt       7.01803479       0.81037259      22.29206783        3      -0.00006969       0.00122224      -0.05327627
Pt       2.80721452       3.24149125      22.29206775        3       0.00108672      -0.00054627      -0.05328465
Pt       5.61442760       3.24149123      22.29206789        3       0.00000090       0.00000020      -0.05023345
Pt       8.42164156       3.24149116      22.29206803        3      -0.00103379       0.00020932      -0.05302252
Pt       4.21082093       5.67260998      22.29206800        3       0.00032946      -0.00100873      -0.05299934
Pt       7.01803487       5.67261039      22.29206775        3      -0.00103212      -0.00068588      -0.05328815
Pt       9.82524824       5.67261062      22.29206803        3       0.00000888      -0.00001432      -0.05017928
Pt      -0.00000058       1.62074570      24.58417378        2       0.00576594      -0.00277094       0.03450238
Pt       2.80721444       1.62074548      24.58417392        2      -0.00528395      -0.00359128       0.03448455
Pt       5.61442778       1.62074537      24.58417373        2       0.00155082       0.00358087       0.02715153
Pt       1.40360636       4.05186440      24.58417384        2      -0.00143067      -0.00426599       0.02119816
Pt       4.21082088       4.05186399      24.58417380        2       0.00230574      -0.00311361       0.02712186
Pt       7.01803502       4.05186406      24.58417406        2      -0.00384908      -0.00044281       0.02711612
Pt       2.80721280       6.48298341      24.58417369        2       0.00444461       0.00091019       0.02123895
Pt       5.61442796       6.48298324      24.58417387        2      -0.00047399       0.00637997       0.03447532
Pt       8.42164221       6.48298340      24.58417380        2      -0.00299233       0.00339441       0.02122098
Pt      -0.00451972      -0.00170656      26.91604156        1       0.03217072       0.01565982      -0.00320648
Pt       2.81097176      -0.00304542      26.91604265        1      -0.02967296       0.02000291      -0.00313799
Pt       5.61468260      -0.00063642      26.91305228        1      -0.00267842       0.00988391       0.01618785
Pt       1.40438712       2.43590685      26.91602708        1      -0.00252576      -0.03571061      -0.00330145
Pt       4.20752020       2.42886904      26.91485339        1       0.01510120       0.01094235      -0.00133059
Pt       7.02165086       2.42939834      26.91485439        1      -0.01701139       0.00761478      -0.00137160
Pt       2.80652986       4.86235476      26.91304007        1       0.00987682      -0.00260411       0.01610621
Pt       5.61412829       4.86624347      26.91484789        1       0.00191699      -0.01857541      -0.00127288
Pt       8.42208505       4.86278906      26.91304131        1      -0.00719737      -0.00726511       0.01611471
N        5.61437943       3.24158289      30.74535846        0      -0.00004278      -0.00001250      -0.04114174
H        6.55437249       3.38402126      30.35127611        0      -0.02122009      -0.00458767       0.01857528
H        5.26800753       2.35595813      30.35182735        0       0.00631247       0.02066894       0.01855681
H        5.02082630       3.98402958      30.35082785        0       0.01494805      -0.01606840       0.01862567
