40
Lattice="8.421641763931781 0.0 0.0 4.2108208819658905 7.293355709136913 0.0 0.0 0.0 46.87624170604845" Properties=species:S:1:pos:R:3:tags:I:1:forces:R:3 charge=0 spin=0 energy=-206.4241778942025 free_energy=-206.4241778942025 stress="0.010423572733998299 -4.377000806243814e-08 -2.895385264878314e-08 -4.377000806243814e-08 0.010423755273222923 8.933605499805708e-08 -2.895385264878314e-08 8.933605499805708e-08 -0.0002330421411897987" pbc="T T T"
Pt      -0.00000003       0.00000022      19.95723434        4      -0.00054865      -0.00008692       0.01768044
Pt       2.80721396      -0.00000018      19.95723452        4       0.00034426      -0.00043242       0.01766833
Pt       5.61442778      -0.00000004      19.95723454        4      -0.00010181      -0.00026719       0.01850101
Pt       1.40360719       2.43111838      19.95723440        4       0.00020350       0.00051797       0.01767436
Pt       4.21082079       2.43111832      19.95723449        4       0.00014325      -0.00012332       0.01865071
Pt       7.01803484       2.43111842      19.95723441        4       0.00003521       0.00018268       0.01864925
Pt       2.80721406       4.86223725      19.95723409        4      -0.00017905       0.00022121       0.01851242
Pt       5.61442803       4.86223733      19.95723425        4      -0.00018216      -0.00005851       0.01865451
Pt       8.42164141       4.86223723      19.95723442        4       0.00028392       0.00004491       0.01849743
Pt       1.40360730       0.81037260      22.29206788        3      -0.00000622       0.00000300      -0.04670668
Pt       4.21082126       0.81037254      22.29206791        3       0.00093943       0.00151513      -0.05151232
Pt       7.01803479       0.81037259      22.29206783        3      -0.00017047       0.00150489      -0.05227969
Pt       2.80721452       3.24149125      22.29206775        3       0.00137870      -0.00059246      -0.05228629
Pt       5.61442760       3.24149123      22.29206789        3       0.00000140       0.00000630      -0.05367688
Pt       8.42164156       3.24149116      22.29206803        3      -0.00176971       0.00007278      -0.05152508
Pt       4.21082093       5.67260998      22.29206800        3       0.00082427      -0.00156588      -0.05151307
Pt       7.01803487       5.67261039      22.29206775        3      -0.00122508      -0.00090246      -0.05229251
Pt       9.82524824       5.67261062      22.29206803        3       0.00000657      -0.00000442      -0.05010521
Pt      -0.00000058       1.62074570      24.58417378        2       0.00355127      -0.00124509       0.01124072
Pt       2.80721444       1.62074548      24.58417392        2      -0.00286647      -0.00242892       0.01121864
Pt       5.61442778       1.62074537      24.58417373        2       0.00023233      -0.01391317       0.00257413
Pt       1.40360636       4.05186440      24.58417384        2      -0.00147095       0.00330971       0.03534029
Pt       4.21082088       4.05186399      24.58417380        2      -0.01216601       0.00677157       0.00255383
Pt       7.01803502       4.05186406      24.58417406        2       0.01193775       0.00717310       0.00255758
Pt       2.80721280       6.48298341      24.58417369        2      -0.00209878      -0.00292890       0.03537269
Pt       5.61442796       6.48298324      24.58417387        2      -0.00068481       0.00368798       0.01123996
Pt       8.42164221       6.48298340      24.58417380        2       0.00357815      -0.00036226       0.03536158
Pt       0.00063007       0.00088856      26.91184315        1      -0.01032399      -0.00897839       0.01339364
Pt       2.80612912       0.00010615      26.91184606        1       0.01292393      -0.00449671       0.01343234
Pt       5.61416218       0.00090583      26.91714112        1      -0.00175990      -0.01815953      -0.00538754
Pt       1.40405731       2.43012956      26.91183870        1      -0.00257234       0.01343205       0.01321481
Pt       4.21193482       2.43345832      26.90747908        1      -0.02173345      -0.01883545       0.03890034
Pt       7.01545166       2.43091828      26.90747737        1       0.02718036      -0.00939061       0.03887169
Pt       2.80812779       4.86201873      26.91713606        1      -0.01485808       0.01056821      -0.00547908
Pt       5.61589253       4.86010364      26.90748211        1      -0.00544728       0.02820459       0.03897899
Pt       8.42098958       4.86155807      26.91713467        1       0.01660671       0.00755585      -0.00546194
N        5.61438900       3.24144705      30.80468046        0       0.00005886       0.00007132      -0.02119905
H        5.45534812       2.30329386      30.41256494        0       0.00442240       0.03528561       0.01020255
H        4.88150835       3.84828378      30.41248528        0       0.02819666      -0.02170719       0.01023381
H        6.50639881       3.57273905      30.41258236        0      -0.03268350      -0.01364910       0.01024955
