40
Lattice="8.421641763931781 0.0 0.0 4.2108208819658905 7.293355709136913 0.0 0.0 0.0 46.87624170604845" Properties=species:S:1:pos:R:3:tags:I:1:forces:R:3 charge=0 spin=0 energy=-206.42911792716149 free_energy=-206.42911792716149 stress="0.010478081181645393 2.486696892844975e-08 2.229580964296929e-08 2.486696892844975e-08 0.01047808863222599 -1.7034276211802535e-08 2.229580964296929e-08 -1.7034276211802535e-08 -7.651407941011712e-05" pbc="T T T"
Pt      -0.00000003       0.00000022      19.95723434        4      -0.00015010       0.00020680       0.01786579
Pt       2.80721396      -0.00000018      19.95723452        4      -0.00010996      -0.00023617       0.01785532
Pt       5.61442778      -0.00000004      19.95723454        4      -0.00011829      -0.00018491       0.01850379
Pt       1.40360719       2.43111838      19.95723440        4       0.00026034       0.00002861       0.01785625
Pt       4.21082079       2.43111832      19.95723449        4       0.00023550       0.00000363       0.01875186
Pt       7.01803484       2.43111842      19.95723441        4      -0.00011950       0.00020068       0.01874906
Pt       2.80721406       4.86223725      19.95723409        4      -0.00009887       0.00019444       0.01851212
Pt       5.61442803       4.86223733      19.95723425        4      -0.00011885      -0.00020453       0.01875652
Pt       8.42164141       4.86223723      19.95723442        4       0.00022071      -0.00001172       0.01849768
Pt       1.40360730       0.81037260      22.29206788        3      -0.00000355       0.00000069      -0.04674991
Pt       4.21082126       0.81037254      22.29206791        3       0.00054300       0.00052978      -0.05241042
Pt       7.01803479       0.81037259      22.29206783        3       0.00022398       0.00085792      -0.05270987
Pt       2.80721452       3.24149125      22.29206775        3       0.00062791      -0.00061485      -0.05271889
Pt       5.61442760       3.24149123      22.29206789        3       0.00000282       0.00000112      -0.05014947
Pt       8.42164156       3.24149116      22.29206803        3      -0.00071942       0.00021192      -0.05243437
Pt       4.21082093       5.67260998      22.29206800        3       0.00017525      -0.00073381      -0.05241740
Pt       7.01803487       5.67261039      22.29206775        3      -0.00086167      -0.00024705      -0.05271807
Pt       9.82524824       5.67261062      22.29206803        3       0.00000945      -0.00001050      -0.05190354
Pt      -0.00000058       1.62074570      24.58417378        2       0.00386710      -0.00223075       0.03633352
Pt       2.80721444       1.62074548      24.58417392        2      -0.00385633      -0.00224035       0.03632681
Pt       5.61442778       1.62074537      24.58417373        2       0.00037350      -0.00154778       0.03539169
Pt       1.40360636       4.05186440      24.58417384        2      -0.00095162      -0.00162154       0.04176961
Pt       4.21082088       4.05186399      24.58417380        2      -0.00153280       0.00046523       0.03539315
Pt       7.01803502       4.05186406      24.58417406        2       0.00115041       0.00111964       0.03539431
Pt       2.80721280       6.48298341      24.58417369        2       0.00190588      -0.00001525       0.04181284
Pt       5.61442796       6.48298324      24.58417387        2      -0.00000800       0.00443798       0.03637151
Pt       8.42164221       6.48298340      24.58417380        2      -0.00094513       0.00165278       0.04181130
Pt      -0.00051292      -0.00060927      26.91724316        1       0.00310573       0.00200928      -0.00931461
Pt       2.80800075      -0.00013488      26.91724829        1      -0.00332428       0.00164468      -0.00927099
Pt       5.61393334       0.00049491      26.91711803        1       0.00004230      -0.00211884      -0.00687150
Pt       1.40333444       2.43187063      26.91722910        1       0.00023001      -0.00371321      -0.00943127
Pt       4.20856760       2.43075776      26.91578082        1       0.01037852       0.00449059       0.00055950
Pt       7.01948051       2.42935684      26.91577454        1      -0.00905742       0.00676839       0.00055530
Pt       2.80787686       4.86242722      26.91711169        1      -0.00186110       0.00101864      -0.00694496
Pt       5.61523558       4.86436680      26.91579188        1      -0.00132574      -0.01122381       0.00062935
Pt       8.42147333       4.86156907      26.91711058        1       0.00181412       0.00110435      -0.00690772
N        5.61443027       3.24148397      30.95632325        0      -0.00012248       0.00005377      -0.00104338
H        6.42912010       2.75762482      30.55777763        0       0.03436984      -0.02043113       0.00206687
H        4.78804486       2.77787374      30.55777933        0      -0.03476428      -0.01949477       0.00212224
H        5.62611957       4.18896155      30.55778537        0       0.00051316       0.03987987       0.00211005
