40
Lattice="8.421641763931781 0.0 0.0 4.2108208819658905 7.293355709136913 0.0 0.0 0.0 46.87624170604845" Properties=species:S:1:pos:R:3:tags:I:1:forces:R:3 charge=0 spin=0 energy=-206.42747760733727 free_energy=-206.42747760733727 stress="0.01050940714776516 -7.902944076931817e-09 1.335566768290164e-08 -7.902944076931817e-09 0.010509340092539787 -3.1634559860549416e-08 1.335566768290164e-08 -3.1634559860549416e-08 -1.4417684724321589e-05" pbc="T T T"
Pt      -0.00000003       0.00000022      19.95723434        4      -0.00002375       0.00031799       0.01778523
Pt       2.80721396      -0.00000018      19.95723452        4      -0.00026908      -0.00018301       0.01777567
Pt       5.61442778      -0.00000004      19.95723454        4      -0.00019257      -0.00005713       0.01859588
Pt       1.40360719       2.43111838      19.95723440        4       0.00029422      -0.00013546       0.01777152
Pt       4.21082079       2.43111832      19.95723449        4       0.00033887       0.00014194       0.01881744
Pt       7.01803484       2.43111842      19.95723441        4      -0.00028999       0.00021952       0.01881371
Pt       2.80721406       4.86223725      19.95723409        4       0.00005099       0.00019573       0.01859844
Pt       5.61442803       4.86223733      19.95723425        4      -0.00004997      -0.00036267       0.01882039
Pt       8.42164141       4.86223723      19.95723442        4       0.00014696      -0.00014108       0.01858415
Pt       1.40360730       0.81037260      22.29206788        3       0.00000074      -0.00000195      -0.04805632
Pt       4.21082126       0.81037254      22.29206791        3       0.00010331      -0.00019801      -0.05280467
Pt       7.01803479       0.81037259      22.29206783        3       0.00071680       0.00037202      -0.05321334
Pt       2.80721452       3.24149125      22.29206775        3      -0.00003163      -0.00080263      -0.05323247
Pt       5.61442760       3.24149123      22.29206789        3       0.00000447      -0.00000162      -0.04576824
Pt       8.42164156       3.24149116      22.29206803        3       0.00012901       0.00018693      -0.05283604
Pt       4.21082093       5.67260998      22.29206800        3      -0.00022513       0.00000693      -0.05281317
Pt       7.01803487       5.67261039      22.29206775        3      -0.00068745       0.00041480      -0.05322788
Pt       9.82524824       5.67261062      22.29206803        3       0.00001189      -0.00001764      -0.05313323
Pt      -0.00000058       1.62074570      24.58417378        2       0.00005589      -0.00011282       0.05517551
Pt       2.80721444       1.62074548      24.58417392        2      -0.00012295      -0.00000875       0.05515529
Pt       5.61442778       1.62074537      24.58417373        2       0.00081800       0.00921748       0.04425509
Pt       1.40360636       4.05186440      24.58417384        2      -0.00084406      -0.00632751       0.04065075
Pt       4.21082088       4.05186399      24.58417380        2       0.00756264      -0.00531716       0.04421869
Pt       7.01803502       4.05186406      24.58417406        2      -0.00839685      -0.00389665       0.04423216
Pt       2.80721280       6.48298341      24.58417369        2       0.00591532       0.00244302       0.04069074
Pt       5.61442796       6.48298324      24.58417387        2       0.00005046       0.00008048       0.05516838
Pt       8.42164221       6.48298340      24.58417380        2      -0.00506914       0.00390403       0.04068732
Pt      -0.00133600      -0.00097463      26.92017755        1       0.01255814       0.00714982      -0.02255284
Pt       2.80872426      -0.00066409      26.92017438        1      -0.01246358       0.00732044      -0.02247928
Pt       5.61429484       0.00288945      26.91398475        1      -0.00112775      -0.01424949       0.00502291
Pt       1.40342692       2.43276915      26.92015504        1      -0.00009275      -0.01446663      -0.02263878
Pt       4.20978318       2.43063657      26.92245911        1      -0.00034100       0.00155136      -0.02655092
Pt       7.01897454       2.43046776      26.92246125        1      -0.00115569      -0.00105006      -0.02659579
Pt       2.80977672       4.86091660      26.91396865        1      -0.01182419       0.00810256       0.00500745
Pt       5.61452002       4.86338234      26.92246761        1       0.00151751      -0.00048192      -0.02646596
Pt       8.41920726       4.86068516      26.91397008        1       0.01293208       0.00618544       0.00501922
N        5.61442919       3.24148498      30.84145358        0       0.00007807       0.00000603      -0.04184437
H        5.63392675       4.18823047      30.44047287        0       0.00094752       0.04194242       0.01778772
H        6.42458204       2.75123174      30.44045714        0       0.03580821      -0.02178122       0.01780932
H        4.78477648       2.78500423      30.44046401        0      -0.03683366      -0.02016553       0.01777050
