40
Lattice="8.421641763931781 0.0 0.0 4.2108208819658905 7.293355709136913 0.0 0.0 0.0 46.87624170604845" Properties=species:S:1:pos:R:3:tags:I:1:forces:R:3 charge=0 spin=0 energy=-206.42912174185875 free_energy=-206.42912174185875 stress="0.010478070005774498 6.419037745786227e-09 8.285153896281372e-09 6.419037745786227e-09 0.010478092357516289 -5.869571495509263e-09 8.285153896281372e-09 -5.869571495509263e-09 -7.656687375856563e-05" pbc="T T T"
Pt      -0.00000003       0.00000022      19.95723434        4      -0.00015020       0.00020676       0.01786579
Pt       2.80721396      -0.00000018      19.95723452        4      -0.00010973      -0.00023604       0.01785544
Pt       5.61442778      -0.00000004      19.95723454        4      -0.00011831      -0.00018471       0.01850394
Pt       1.40360719       2.43111838      19.95723440        4       0.00026027       0.00002868       0.01785627
Pt       4.21082079       2.43111832      19.95723449        4       0.00023553       0.00000378       0.01875181
Pt       7.01803484       2.43111842      19.95723441        4      -0.00011956       0.00020058       0.01874916
Pt       2.80721406       4.86223725      19.95723409        4      -0.00009853       0.00019440       0.01851263
Pt       5.61442803       4.86223733      19.95723425        4      -0.00011879      -0.00020460       0.01875684
Pt       8.42164141       4.86223723      19.95723442        4       0.00022050      -0.00001182       0.01849806
Pt       1.40360730       0.81037260      22.29206788        3      -0.00000357       0.00000074      -0.04675019
Pt       4.21082126       0.81037254      22.29206791        3       0.00054225       0.00052989      -0.05240956
Pt       7.01803479       0.81037259      22.29206783        3       0.00022484       0.00085783      -0.05271031
Pt       2.80721452       3.24149125      22.29206775        3       0.00062785      -0.00061529      -0.05271957
Pt       5.61442760       3.24149123      22.29206789        3       0.00000265       0.00000118      -0.05014771
Pt       8.42164156       3.24149116      22.29206803        3      -0.00071916       0.00021166      -0.05243371
Pt       4.21082093       5.67260998      22.29206800        3       0.00017562      -0.00073331      -0.05241545
Pt       7.01803487       5.67261039      22.29206775        3      -0.00086243      -0.00024604      -0.05271716
Pt       9.82524824       5.67261062      22.29206803        3       0.00000972      -0.00001041      -0.05190331
Pt      -0.00000058       1.62074570      24.58417378        2       0.00386247      -0.00222482       0.03632564
Pt       2.80721444       1.62074548      24.58417392        2      -0.00384778      -0.00223685       0.03631962
Pt       5.61442778       1.62074537      24.58417373        2       0.00037105      -0.00154580       0.03538792
Pt       1.40360636       4.05186440      24.58417384        2      -0.00095444      -0.00162011       0.04176315
Pt       4.21082088       4.05186399      24.58417380        2      -0.00153083       0.00046460       0.03539222
Pt       7.01803502       4.05186406      24.58417406        2       0.00115033       0.00112088       0.03539478
Pt       2.80721280       6.48298341      24.58417369        2       0.00190455      -0.00001679       0.04180221
Pt       5.61442796       6.48298324      24.58417387        2      -0.00000848       0.00442783       0.03636103
Pt       8.42164221       6.48298340      24.58417380        2      -0.00094402       0.00164943       0.04180367
Pt      -0.00051215      -0.00060928      26.91724023        1       0.00309064       0.00201747      -0.00929794
Pt       2.80799936      -0.00013546      26.91724483        1      -0.00331103       0.00164673      -0.00925542
Pt       5.61393374       0.00049460      26.91711647        1       0.00004074      -0.00211799      -0.00686169
Pt       1.40333482       2.43186979      26.91722442        1       0.00023197      -0.00370587      -0.00942754
Pt       4.20856907       2.43075838      26.91578235        1       0.01036568       0.00448299       0.00055297
Pt       7.01947890       2.42935714      26.91577602        1      -0.00904316       0.00676393       0.00055555
Pt       2.80787607       4.86242768      26.91711047        1      -0.00186075       0.00101262      -0.00693753
Pt       5.61523504       4.86436527      26.91579348        1      -0.00132177      -0.01121341       0.00062129
Pt       8.42147361       4.86156910      26.91710965        1       0.00181213       0.00110095      -0.00690878
N        5.61442941       3.24148546      30.95611021        0       0.00001162       0.00003111      -0.00099393
H        5.62611904       4.18896653      30.55758110        0       0.00050082       0.03984493       0.00209488
H        6.42912495       2.75762366      30.55757347        0       0.03426780      -0.02037666       0.00208907
H        4.78804210       2.77787133      30.55757816        0      -0.03478659      -0.01949842       0.00207608
