40
Lattice="8.421641763931781 0.0 0.0 4.2108208819658905 7.293355709136913 0.0 0.0 0.0 46.87624170604845" Properties=species:S:1:pos:R:3:tags:I:1:forces:R:3 charge=0 spin=0 energy=-206.42596126517418 free_energy=-206.42596126517418 stress="0.01049310527741909 -7.114162059451701e-08 -9.22782028567326e-09 -7.114162059451701e-08 0.010493024252355099 1.765400554631924e-07 -9.22782028567326e-09 1.765400554631924e-07 -4.038077895529568e-05" pbc="T T T"
Pt      -0.00000003       0.00000022      19.95723434        4      -0.00008364       0.00020424       0.01786906
Pt       2.80721396      -0.00000018      19.95723452        4      -0.00014318      -0.00018029       0.01785854
Pt       5.61442778      -0.00000004      19.95723454        4      -0.00018372      -0.00028816       0.01853566
Pt       1.40360719       2.43111838      19.95723440        4       0.00022527      -0.00002746       0.01785288
Pt       4.21082079       2.43111832      19.95723449        4       0.00036348       0.00010484       0.01877862
Pt       7.01803484       2.43111842      19.95723441        4      -0.00027258       0.00026123       0.01877732
Pt       2.80721406       4.86223725      19.95723409        4      -0.00015474       0.00030150       0.01853678
Pt       5.61442803       4.86223733      19.95723425        4      -0.00009508      -0.00036581       0.01877768
Pt       8.42164141       4.86223723      19.95723442        4       0.00034082      -0.00001739       0.01852217
Pt       1.40360730       0.81037260      22.29206788        3      -0.00000689       0.00001604      -0.04722524
Pt       4.21082126       0.81037254      22.29206791        3       0.00038147       0.00026803      -0.05252749
Pt       7.01803479       0.81037259      22.29206783        3       0.00051533       0.00071727      -0.05366099
Pt       2.80721452       3.24149125      22.29206775        3       0.00035438      -0.00081333      -0.05367951
Pt       5.61442760       3.24149123      22.29206789        3      -0.00000088       0.00000283      -0.04717110
Pt       8.42164156       3.24149116      22.29206803        3      -0.00040715       0.00019882      -0.05255847
Pt       4.21082093       5.67260998      22.29206800        3       0.00003353      -0.00047360      -0.05254025
Pt       7.01803487       5.67261039      22.29206775        3      -0.00089412       0.00006581      -0.05366337
Pt       9.82524824       5.67261062      22.29206803        3       0.00000825      -0.00001862      -0.05178924
Pt      -0.00000058       1.62074570      24.58417378        2       0.00210846      -0.00152209       0.05252761
Pt       2.80721444       1.62074548      24.58417392        2      -0.00236925      -0.00101616       0.05253938
Pt       5.61442778       1.62074537      24.58417373        2       0.00101036       0.00685095       0.03842947
Pt       1.40360636       4.05186440      24.58417384        2      -0.00102007      -0.00519137       0.03840030
Pt       4.21082088       4.05186399      24.58417380        2       0.00535417      -0.00432516       0.03830295
Pt       7.01803502       4.05186406      24.58417406        2      -0.00637495      -0.00256645       0.03830549
Pt       2.80721280       6.48298341      24.58417369        2       0.00502219       0.00175585       0.03844935
Pt       5.61442796       6.48298324      24.58417387        2       0.00029376       0.00266685       0.05243086
Pt       8.42164221       6.48298340      24.58417380        2      -0.00398881       0.00351173       0.03845353
Pt      -0.00210722      -0.00204608      26.91967713        1       0.01869578       0.01211607      -0.02090847
Pt       2.81007443      -0.00075443      26.91967947        1      -0.01992333       0.00998027      -0.02085382
Pt       5.61412123       0.00283687      26.91410400        1      -0.00040101      -0.01577967       0.00655526
Pt       1.40286921       2.43399903      26.91966658        1       0.00123189      -0.02227509      -0.02102308
Pt       4.20965625       2.43108827      26.92040370        1      -0.00197223      -0.00082622      -0.01853557
Pt       7.01867483       2.43014083      26.92039836        1       0.00169830      -0.00126898      -0.01852567
Pt       2.80981146       4.86111439      26.91407805        1      -0.01351423       0.00825046       0.00651665
Pt       5.61497383       4.86331434      26.92033724        1       0.00028681       0.00206751      -0.01829887
Pt       8.41936452       4.86057315      26.91408785        1       0.01388605       0.00759920       0.00652931
N        5.61441535       3.24279575      30.83926604        0       0.00004586      -0.00020930      -0.02912214
H        4.66756063       3.23626933      30.43877162        0      -0.04726819      -0.00197528       0.01303287
H        6.08377570       4.06329480      30.43497249        0       0.02213139       0.04200531       0.01297507
H        6.09194384       2.42329667      30.44257926        0       0.02508640      -0.03980472       0.01312653
