40
Lattice="8.421641763931781 0.0 0.0 4.2108208819658905 7.293355709136913 0.0 0.0 0.0 46.87624170604845" Properties=species:S:1:pos:R:3:tags:I:1:forces:R:3 charge=0 spin=0 energy=-206.4269912334359 free_energy=-206.4269912334359 stress="0.010524860583245754 -7.196694582489727e-07 8.513455895808875e-08 -7.196694582489727e-07 0.01052512414753437 -7.451851615769556e-07 8.513455895808875e-08 -7.451851615769556e-07 -2.2801612431067042e-05" pbc="T T T"
Pt      -0.00000003       0.00000022      19.95723434        4      -0.00030656       0.00014137       0.01805281
Pt       2.80721396      -0.00000018      19.95723452        4       0.00002655      -0.00033531       0.01804062
Pt       5.61442778      -0.00000004      19.95723454        4      -0.00015026      -0.00011606       0.01847009
Pt       1.40360719       2.43111838      19.95723440        4       0.00028258       0.00019313       0.01804355
Pt       4.21082079       2.43111832      19.95723449        4       0.00014268      -0.00012213       0.01867951
Pt       7.01803484       2.43111842      19.95723441        4       0.00003663       0.00017723       0.01867357
Pt       2.80721406       4.86223725      19.95723409        4      -0.00002214       0.00018824       0.01848199
Pt       5.61442803       4.86223733      19.95723425        4      -0.00017834      -0.00006492       0.01869622
Pt       8.42164141       4.86223723      19.95723442        4       0.00018122      -0.00007856       0.01846570
Pt       1.40360730       0.81037260      22.29206788        3       0.00000741      -0.00002754      -0.04626072
Pt       4.21082126       0.81037254      22.29206791        3       0.00112943       0.00029370      -0.05191988
Pt       7.01803479       0.81037259      22.29206783        3      -0.00014592       0.00072540      -0.05268125
Pt       2.80721452       3.24149125      22.29206775        3       0.00071431      -0.00022526      -0.05268395
Pt       5.61442760       3.24149123      22.29206789        3       0.00001145      -0.00001163      -0.05136869
Pt       8.42164156       3.24149116      22.29206803        3      -0.00082973       0.00083072      -0.05193155
Pt       4.21082093       5.67260998      22.29206800        3      -0.00030792      -0.00112105      -0.05190224
Pt       7.01803487       5.67261039      22.29206775        3      -0.00055037      -0.00049146      -0.05271545
Pt       9.82524824       5.67261062      22.29206803        3       0.00000782      -0.00001369      -0.05438738
Pt      -0.00000058       1.62074570      24.58417378        2       0.00853421      -0.00543083       0.05307949
Pt       2.80721444       1.62074548      24.58417392        2      -0.00902585      -0.00465090       0.05294752
Pt       5.61442778       1.62074537      24.58417373        2       0.00053569      -0.00415420       0.02974170
Pt       1.40360636       4.05186440      24.58417384        2      -0.00136022      -0.00987834       0.05031070
Pt       4.21082088       4.05186399      24.58417380        2      -0.00382334       0.00173085       0.02976627
Pt       7.01803502       4.05186406      24.58417406        2       0.00327692       0.00257750       0.02981006
Pt       2.80721280       6.48298341      24.58417369        2       0.00926174       0.00373117       0.05033689
Pt       5.61442796       6.48298324      24.58417387        2       0.00038007       0.00997159       0.05315732
Pt       8.42164221       6.48298340      24.58417380        2      -0.00785693       0.00612928       0.05029188
Pt       0.00123935      -0.00066235      26.92347598        1      -0.00334502       0.00203782      -0.03362538
Pt       2.80714817       0.00140703      26.92342298        1      -0.00020018      -0.00412836      -0.03344211
Pt       5.61439085       0.00038504      26.91621024        1      -0.00158971      -0.00484555      -0.00393129
Pt       1.40240266       2.43038416      26.92346315        1       0.00359331       0.00183932      -0.03368761
Pt       4.21085674       2.43229501      26.91490739        1      -0.01157061      -0.00868801       0.00614091
Pt       7.01701068       2.43059008      26.91494488        1       0.01321213      -0.00569978       0.00597174
Pt       2.80753730       4.86210974      26.91620669        1      -0.00339071       0.00371351      -0.00392836
Pt       5.61538073       4.86159206      26.91502034        1      -0.00165918       0.01441106       0.00573296
Pt       8.42131565       4.86202563      26.91618543        1       0.00501214       0.00109494      -0.00387556
N        5.61447427       3.23876686      31.01262497        0      -0.00010898       0.00124030       0.03314181
H        4.66480682       3.23137046      30.61935613        0      -0.01273822      -0.00376867      -0.01255785
H        6.07943238       4.07039056      30.62691340        0       0.00592282       0.01250908      -0.01224397
H        6.09905394       2.42565683      30.61182052        0       0.00689110      -0.00968394      -0.01289004
