40
Lattice="8.421641763931781 0.0 0.0 4.2108208819658905 7.293355709136913 0.0 0.0 0.0 46.87624170604845" Properties=species:S:1:pos:R:3:tags:I:1:forces:R:3 charge=0 spin=0 energy=-206.4284961315072 free_energy=-206.4284961315072 stress="0.010476863943040371 1.4500630030056527e-08 -2.0694475022509096e-09 1.4500630030056527e-08 0.010476900264620781 -9.238866560679071e-09 -2.0694475022509096e-09 -9.238866560679071e-09 -0.00015334073395933956" pbc="T T T"
Pt      -0.00000003       0.00000022      19.95723434        4      -0.00039461       0.00000446       0.01775489
Pt       2.80721396      -0.00000018      19.95723452        4       0.00018641      -0.00034601       0.01774484
Pt       5.61442778      -0.00000004      19.95723454        4      -0.00010420       0.00002594       0.01853254
Pt       1.40360719       2.43111838      19.95723440        4       0.00020697       0.00034065       0.01774692
Pt       4.21082079       2.43111832      19.95723449        4       0.00034994       0.00015980       0.01871269
Pt       7.01803484       2.43111842      19.95723441        4      -0.00031272       0.00022105       0.01871017
Pt       2.80721406       4.86223725      19.95723409        4       0.00007749       0.00007690       0.01853598
Pt       5.61442803       4.86223733      19.95723425        4      -0.00004059      -0.00037995       0.01871112
Pt       8.42164141       4.86223723      19.95723442        4       0.00002916      -0.00010465       0.01852196
Pt       1.40360730       0.81037260      22.29206788        3      -0.00000425       0.00000204      -0.05126909
Pt       4.21082126       0.81037254      22.29206791        3      -0.00027333       0.00053912      -0.05207591
Pt       7.01803479       0.81037259      22.29206783        3       0.00091968       0.00091955      -0.05234693
Pt       2.80721452       3.24149125      22.29206775        3       0.00032969      -0.00124315      -0.05236282
Pt       5.61442760       3.24149123      22.29206789        3       0.00000120       0.00000924      -0.04836732
Pt       8.42164156       3.24149116      22.29206803        3      -0.00032129      -0.00049108      -0.05209989
Pt       4.21082093       5.67260998      22.29206800        3       0.00058707      -0.00002716      -0.05209403
Pt       7.01803487       5.67261039      22.29206775        3      -0.00126414       0.00033180      -0.05236599
Pt       9.82524824       5.67261062      22.29206803        3       0.00000631      -0.00000602      -0.05059658
Pt      -0.00000058       1.62074570      24.58417378        2      -0.00718428       0.00391904       0.02440898
Pt       2.80721444       1.62074548      24.58417392        2       0.00698025       0.00427301       0.02439021
Pt       5.61442778       1.62074537      24.58417373        2       0.00043149       0.00049701       0.02981603
Pt       1.40360636       4.05186440      24.58417384        2      -0.00080302       0.00339995       0.02890240
Pt       4.21082088       4.05186399      24.58417380        2       0.00020653      -0.00060892       0.02979964
Pt       7.01803502       4.05186406      24.58417406        2      -0.00062846       0.00013422       0.02982051
Pt       2.80721280       6.48298341      24.58417369        2      -0.00252328      -0.00238406       0.02893293
Pt       5.61442796       6.48298324      24.58417387        2       0.00021068      -0.00819078       0.02442058
Pt       8.42164221       6.48298340      24.58417380        2       0.00332672      -0.00099570       0.02893751
Pt      -0.00011448      -0.00038197      26.91031718        1      -0.00136149      -0.00038497       0.01745901
Pt       2.80760654       0.00010077      26.91032112        1       0.00099298      -0.00102833       0.01747639
Pt       5.61385010       0.00147112      26.91507777        1       0.00045913      -0.00926520       0.00154722
Pt       1.40332879       2.43140069      26.91030478        1       0.00037809       0.00135908       0.01747788
Pt       4.21244134       2.43279711      26.91818243        1      -0.01550390      -0.00947619      -0.00546468
Pt       7.01577114       2.43168341      26.91818156        1       0.01596603      -0.00867060      -0.00547070
Pt       2.80876555       4.86200388      26.91506288        1      -0.00824434       0.00422888       0.00151049
Pt       5.61507072       4.85999798      26.91818284        1      -0.00046582       0.01814662      -0.00549411
Pt       8.42066596       4.86100435      26.91506672        1       0.00779101       0.00501879       0.00151541
N        5.61443014       3.24148884      30.88569172        0      -0.00007698      -0.00006893      -0.00752585
H        4.78274294       2.77771523      30.49487362        0       0.04283877       0.02395055       0.00540499
H        5.62863093       4.19363615      30.49487465        0      -0.00067923      -0.04898167       0.00536820
H        6.43191002       2.75311571      30.49486870        0      -0.04208975       0.02509560       0.00537416
