40
Lattice="8.421641763931781 0.0 0.0 4.2108208819658905 7.293355709136913 0.0 0.0 0.0 46.87624170604845" Properties=species:S:1:pos:R:3:tags:I:1:forces:R:3 charge=0 spin=0 energy=-206.42849803885582 free_energy=-206.42849803885582 stress="0.010476862080395222 -1.2849353581145806e-08 -3.001066772867489e-08 -1.2849353581145806e-08 0.010476930998265743 -2.984864622135319e-08 -3.001066772867489e-08 -2.984864622135319e-08 -0.00015326793072745204" pbc="T T T"
Pt      -0.00000003       0.00000022      19.95723434        4      -0.00039409       0.00000492       0.01775491
Pt       2.80721396      -0.00000018      19.95723452        4       0.00018590      -0.00034568       0.01774467
Pt       5.61442778      -0.00000004      19.95723454        4      -0.00010435       0.00002589       0.01853286
Pt       1.40360719       2.43111838      19.95723440        4       0.00020720       0.00034006       0.01774664
Pt       4.21082079       2.43111832      19.95723449        4       0.00034966       0.00015973       0.01871305
Pt       7.01803484       2.43111842      19.95723441        4      -0.00031243       0.00022098       0.01871051
Pt       2.80721406       4.86223725      19.95723409        4       0.00007757       0.00007703       0.01853621
Pt       5.61442803       4.86223733      19.95723425        4      -0.00004047      -0.00037971       0.01871129
Pt       8.42164141       4.86223723      19.95723442        4       0.00002924      -0.00010456       0.01852204
Pt       1.40360730       0.81037260      22.29206788        3      -0.00000396       0.00000184      -0.05126416
Pt       4.21082126       0.81037254      22.29206791        3      -0.00027218       0.00053811      -0.05207612
Pt       7.01803479       0.81037259      22.29206783        3       0.00091849       0.00091897      -0.05234807
Pt       2.80721452       3.24149125      22.29206775        3       0.00032949      -0.00124207      -0.05236337
Pt       5.61442760       3.24149123      22.29206789        3       0.00000128       0.00000882      -0.04836655
Pt       8.42164156       3.24149116      22.29206803        3      -0.00032104      -0.00049052      -0.05210036
Pt       4.21082093       5.67260998      22.29206800        3       0.00058597      -0.00002773      -0.05209459
Pt       7.01803487       5.67261039      22.29206775        3      -0.00126351       0.00033140      -0.05236695
Pt       9.82524824       5.67261062      22.29206803        3       0.00000674      -0.00000642      -0.05060029
Pt      -0.00000058       1.62074570      24.58417378        2      -0.00717651       0.00391415       0.02442627
Pt       2.80721444       1.62074548      24.58417392        2       0.00697180       0.00426662       0.02440896
Pt       5.61442778       1.62074537      24.58417373        2       0.00043190       0.00049996       0.02982430
Pt       1.40360636       4.05186440      24.58417384        2      -0.00080168       0.00338927       0.02891230
Pt       4.21082088       4.05186399      24.58417380        2       0.00021075      -0.00060961       0.02980914
Pt       7.01803502       4.05186406      24.58417406        2      -0.00063447       0.00013387       0.02982751
Pt       2.80721280       6.48298341      24.58417369        2      -0.00251469      -0.00237841       0.02894775
Pt       5.61442796       6.48298324      24.58417387        2       0.00021095      -0.00818289       0.02444152
Pt       8.42164221       6.48298340      24.58417380        2       0.00331669      -0.00098844       0.02895183
Pt      -0.00011324      -0.00038111      26.91032590        1      -0.00137467      -0.00038725       0.01743106
Pt       2.80760457       0.00010118      26.91033005        1       0.00099892      -0.00103646       0.01743621
Pt       5.61385031       0.00147157      26.91507657        1       0.00045962      -0.00926624       0.00154457
Pt       1.40332879       2.43139925      26.91031340        1       0.00037689       0.00136343       0.01744382
Pt       4.21243786       2.43279472      26.91818306        1      -0.01547926      -0.00946224      -0.00547081
Pt       7.01577479       2.43168183      26.91818276        1       0.01594096      -0.00866158      -0.00547460
Pt       2.80876524       4.86200341      26.91506198        1      -0.00824142       0.00423296       0.00150788
Pt       5.61507004       4.86000201      26.91818443        1      -0.00046524       0.01812165      -0.00550995
Pt       8.42066548       4.86100446      26.91506551        1       0.00778874       0.00502216       0.00152065
N        5.61443020       3.24148846      30.88559701        0       0.00003867       0.00002087      -0.00742301
H        5.62862995       4.19363598      30.49478246        0      -0.00068240      -0.04895423       0.00536050
H        6.43191044       2.75311732      30.49477518        0      -0.04204967       0.02506416       0.00535424
H        4.78274516       2.77771553      30.49478458        0       0.04269479       0.02386730       0.00533788
