40
Lattice="8.421641763931781 0.0 0.0 4.2108208819658905 7.293355709136913 0.0 0.0 0.0 46.87624170604845" Properties=species:S:1:pos:R:3:tags:I:1:forces:R:3 charge=0 spin=0 energy=-206.4241836162484 free_energy=-206.4241836162484 stress="0.010422413237392902 4.708176604140135e-08 -2.1659234406001815e-08 4.708176604140135e-08 0.010422500781714916 1.0778801140531868e-07 -2.1659234406001815e-08 1.0778801140531868e-07 -0.0002364555693930015" pbc="T T T"
Pt      -0.00000003       0.00000022      19.95723434        4      -0.00060894      -0.00000131       0.01770773
Pt       2.80721396      -0.00000018      19.95723452        4       0.00029899      -0.00052626       0.01769660
Pt       5.61442778      -0.00000004      19.95723454        4      -0.00003179      -0.00029739       0.01849842
Pt       1.40360719       2.43111838      19.95723440        4       0.00030621       0.00052659       0.01770235
Pt       4.21082079       2.43111832      19.95723449        4       0.00015808      -0.00006405       0.01861528
Pt       7.01803484       2.43111842      19.95723441        4      -0.00002465       0.00016704       0.01861350
Pt       2.80721406       4.86223725      19.95723409        4      -0.00024156       0.00017519       0.01850973
Pt       5.61442803       4.86223733      19.95723425        4      -0.00013916      -0.00010201       0.01861852
Pt       8.42164141       4.86223723      19.95723442        4       0.00027367       0.00012135       0.01849484
Pt       1.40360730       0.81037260      22.29206788        3      -0.00000867       0.00000323      -0.04672435
Pt       4.21082126       0.81037254      22.29206791        3       0.00093774       0.00154305      -0.05180382
Pt       7.01803479       0.81037259      22.29206783        3      -0.00017736       0.00158299      -0.05207421
Pt       2.80721452       3.24149125      22.29206775        3       0.00144322      -0.00062745      -0.05208306
Pt       5.61442760       3.24149123      22.29206789        3      -0.00000207       0.00000733      -0.05359305
Pt       8.42164156       3.24149116      22.29206803        3      -0.00179842       0.00006168      -0.05181666
Pt       4.21082093       5.67260998      22.29206800        3       0.00084397      -0.00158126      -0.05180639
Pt       7.01803487       5.67261039      22.29206775        3      -0.00129295      -0.00094278      -0.05208843
Pt       9.82524824       5.67261062      22.29206803        3       0.00000293      -0.00000375      -0.04987852
Pt      -0.00000058       1.62074570      24.58417378        2       0.00272392      -0.00267506       0.01074703
Pt       2.80721444       1.62074548      24.58417392        2      -0.00367449      -0.00099664       0.01071835
Pt       5.61442778       1.62074537      24.58417373        2       0.00234508      -0.01433105       0.00178713
Pt       1.40360636       4.05186440      24.58417384        2      -0.00063289       0.00354725       0.03534651
Pt       4.21082088       4.05186399      24.58417380        2      -0.01356181       0.00516132       0.00176310
Pt       7.01803502       4.05186406      24.58417406        2       0.01125675       0.00919729       0.00177885
Pt       2.80721280       6.48298341      24.58417369        2      -0.00270781      -0.00232772       0.03538406
Pt       5.61442796       6.48298324      24.58417387        2       0.00097689       0.00367539       0.01074886
Pt       8.42164221       6.48298340      24.58417380        2       0.00337821      -0.00120231       0.03537336
Pt       0.00137583      -0.00057523      26.91171485        1      -0.01398494      -0.00252947       0.01392507
Pt       2.80703970       0.00147123      26.91171573        1       0.00916328      -0.01087494       0.01397036
Pt       5.61370669       0.00102387      26.91720450        1       0.00336339      -0.01956571      -0.00569477
Pt       1.40243700       2.43022221      26.91170598        1       0.00483064       0.01336448       0.01376050
Pt       4.21288856       2.43206171      26.90730138        1      -0.02785073      -0.01059593       0.03993176
Pt       7.01620276       2.43242621      26.90730286        1       0.02309845      -0.01880997       0.03989397
Pt       2.80848062       4.86236018      26.91719579        1      -0.01865072       0.00684297      -0.00577918
Pt       5.61422796       4.85998471      26.90730845        1       0.00473435       0.02938391       0.04000646
Pt       8.42113211       4.86108956      26.91719732        1       0.01525576       0.01269859      -0.00576165
N        5.61438435       3.24142527      30.80530694        0       0.00002422       0.00002923      -0.01908892
H        4.71900444       3.56344482      30.41327280        0       0.03195585      -0.01287927       0.00952525
H        6.34089404       3.85584238      30.41317071        0      -0.02721697      -0.02129568       0.00954874
H        5.78316454       2.30504636      30.41313375        0      -0.00476581       0.03414109       0.00952672
