40
Lattice="8.421641763931781 0.0 0.0 4.2108208819658905 7.293355709136913 0.0 0.0 0.0 46.87624170604845" Properties=species:S:1:pos:R:3:tags:I:1:forces:R:3 charge=0 spin=0 energy=-206.42405582389 free_energy=-206.42405582389 stress="0.010434705764055252 6.351146275562769e-09 8.586677480160176e-10 6.351146275562769e-09 0.010434716939926147 -1.2888016875933772e-08 8.586677480160176e-10 -1.2888016875933772e-08 -0.00020316099107731134" pbc="T T T"
Pt      -0.00000003       0.00000022      19.95723434        4      -0.00010306       0.00023218       0.01773861
Pt       2.80721396      -0.00000018      19.95723452        4      -0.00015386      -0.00020633       0.01772828
Pt       5.61442778      -0.00000004      19.95723454        4      -0.00011623      -0.00059127       0.01842626
Pt       1.40360719       2.43111838      19.95723440        4       0.00025775      -0.00002621       0.01773004
Pt       4.21082079       2.43111832      19.95723449        4       0.00011200      -0.00010902       0.01883099
Pt       7.01803484       2.43111842      19.95723441        4       0.00003907       0.00014872       0.01882785
Pt       2.80721406       4.86223725      19.95723409        4      -0.00045299       0.00039640       0.01843625
Pt       5.61442803       4.86223733      19.95723425        4      -0.00015342      -0.00003969       0.01883604
Pt       8.42164141       4.86223723      19.95723442        4       0.00057293       0.00019416       0.01842145
Pt       1.40360730       0.81037260      22.29206788        3      -0.00000353       0.00000140      -0.04357019
Pt       4.21082126       0.81037254      22.29206791        3       0.00104715       0.00126222      -0.05255917
Pt       7.01803479       0.81037259      22.29206783        3      -0.00028701       0.00144007      -0.05327367
Pt       2.80721452       3.24149125      22.29206775        3       0.00138623      -0.00046046      -0.05328260
Pt       5.61442760       3.24149123      22.29206789        3       0.00000324       0.00000151      -0.05179533
Pt       8.42164156       3.24149116      22.29206803        3      -0.00160243       0.00028230      -0.05257999
Pt       4.21082093       5.67260998      22.29206800        3       0.00055552      -0.00153462      -0.05255939
Pt       7.01803487       5.67261039      22.29206775        3      -0.00110741      -0.00098167      -0.05328256
Pt       9.82524824       5.67261062      22.29206803        3       0.00001111      -0.00000965      -0.04969698
Pt      -0.00000058       1.62074570      24.58417378        2       0.00645764      -0.00361680       0.02218148
Pt       2.80721444       1.62074548      24.58417392        2      -0.00635595      -0.00379288       0.02218146
Pt       5.61442778       1.62074537      24.58417373        2       0.00149679      -0.00140036       0.01833892
Pt       1.40360636       4.05186440      24.58417384        2      -0.00121775      -0.00155584       0.02241155
Pt       4.21082088       4.05186399      24.58417380        2      -0.00195815      -0.00059869       0.01831413
Pt       7.01803502       4.05186406      24.58417406        2       0.00045283       0.00201355       0.01831052
Pt       2.80721280       6.48298341      24.58417369        2       0.00198320      -0.00026846       0.02245180
Pt       5.61442796       6.48298324      24.58417387        2      -0.00009863       0.00737742       0.02219561
Pt       8.42164221       6.48298340      24.58417380        2      -0.00076922       0.00184392       0.02245223
Pt      -0.00283059      -0.00169918      26.91417500        1       0.01858970       0.01029979       0.00562749
Pt       2.81009635      -0.00160293      26.91418327        1      -0.01820781       0.01095386       0.00565329
Pt       5.61413014      -0.00029776      26.91388065        1      -0.00005702       0.00261478       0.01206301
Pt       1.40355035       2.43442151      26.91416051        1      -0.00036796      -0.02126584       0.00552191
Pt       4.20734270       2.42954422      26.91129624        1       0.01505436       0.00904529       0.01537324
Pt       7.02113790       2.42889949      26.91129006        1      -0.01535348       0.00851850       0.01537846
Pt       2.80710267       4.86264309      26.91387054        1       0.00223663      -0.00124978       0.01198438
Pt       5.61479726       4.86603298      26.91130265        1       0.00030585      -0.01758220       0.01542142
Pt       8.42204549       4.86213115      26.91387325        1      -0.00219506      -0.00133779       0.01199660
N        5.61443021       3.24148977      30.78473497        0       0.00000203       0.00002828       0.00160903
H        4.78760877       3.71240946      30.39397653        0       0.01754881      -0.01011954       0.00272228
H        6.43566848       3.72207788      30.39397212        0      -0.01754092      -0.01014423       0.00272405
H        5.62001156       2.28998219      30.39397543        0      -0.00001060       0.02023701       0.00271159
