40
Lattice="8.421641763931781 0.0 0.0 4.2108208819658905 7.293355709136913 0.0 0.0 0.0 46.87624170604845" Properties=species:S:1:pos:R:3:tags:I:1:forces:R:3 charge=0 spin=0 energy=-206.42076946219566 free_energy=-206.42076946219566 stress="0.010463719256222248 7.218728281799258e-09 -4.843564216372442e-09 7.218728281799258e-09 0.01046376395970583 1.4357250499585916e-08 -4.843564216372442e-09 1.4357250499585916e-08 -0.00010562715760897845" pbc="T T T"
Pt      -0.00000003       0.00000022      19.95723434        4       0.00023671       0.00045849       0.01761412
Pt       2.80721396      -0.00000018      19.95723452        4      -0.00051947      -0.00002421       0.01760404
Pt       5.61442778      -0.00000004      19.95723454        4      -0.00018092      -0.00071812       0.01853114
Pt       1.40360719       2.43111838      19.95723440        4       0.00028242      -0.00043325       0.01760194
Pt       4.21082079       2.43111832      19.95723449        4       0.00014681      -0.00005526       0.01898669
Pt       7.01803484       2.43111842      19.95723441        4      -0.00002470       0.00015354       0.01898258
Pt       2.80721406       4.86223725      19.95723409        4      -0.00053033       0.00051527       0.01853699
Pt       5.61442803       4.86223733      19.95723425        4      -0.00012576      -0.00009845       0.01899015
Pt       8.42164141       4.86223723      19.95723442        4       0.00071406       0.00020110       0.01852149
Pt       1.40360730       0.81037260      22.29206788        3      -0.00000440       0.00000478      -0.04150761
Pt       4.21082126       0.81037254      22.29206791        3       0.00101758       0.00080880      -0.05336373
Pt       7.01803479       0.81037259      22.29206783        3      -0.00016568       0.00110801      -0.05443872
Pt       2.80721452       3.24149125      22.29206775        3       0.00103345      -0.00039708      -0.05444699
Pt       5.61442760       3.24149123      22.29206789        3       0.00000071       0.00000277      -0.04835913
Pt       8.42164156       3.24149116      22.29206803        3      -0.00119592       0.00048771      -0.05338485
Pt       4.21082093       5.67260998      22.29206800        3       0.00017514      -0.00127932      -0.05336063
Pt       7.01803487       5.67261039      22.29206775        3      -0.00088106      -0.00070540      -0.05444879
Pt       9.82524824       5.67261062      22.29206803        3       0.00000943      -0.00000904      -0.05032684
Pt      -0.00000058       1.62074570      24.58417378        2       0.00772785      -0.00433069       0.04758888
Pt       2.80721444       1.62074548      24.58417392        2      -0.00762315      -0.00450819       0.04758387
Pt       5.61442778       1.62074537      24.58417373        2       0.00191705       0.00779451       0.03286642
Pt       1.40360636       4.05186440      24.58417384        2      -0.00114521      -0.00608856       0.02980598
Pt       4.21082088       4.05186399      24.58417380        2       0.00577068      -0.00554636       0.03284879
Pt       7.01803502       4.05186406      24.58417406        2      -0.00769286      -0.00222103       0.03283679
Pt       2.80721280       6.48298341      24.58417369        2       0.00587030       0.00204663       0.02982346
Pt       5.61442796       6.48298324      24.58417387        2      -0.00009689       0.00883036       0.04756970
Pt       8.42164221       6.48298340      24.58417380        2      -0.00471591       0.00404304       0.02981270
Pt      -0.00506048      -0.00274478      26.91986549        1       0.03756427       0.02040307      -0.01907442
Pt       2.81212004      -0.00301200      26.91986958        1      -0.03647522       0.02229780      -0.01903002
Pt       5.61437846       0.00166751      26.91333214        1      -0.00106613      -0.00792876       0.01381987
Pt       1.40376223       2.43687479      26.91986168        1      -0.00109143      -0.04271807      -0.01919005
Pt       4.20589019       2.42825333      26.91723635        1       0.02020266       0.01357925      -0.01467907
Pt       7.02298230       2.42828281      26.91723291        1      -0.02185099       0.01070887      -0.01470136
Pt       2.80868391       4.86144609      26.91333156        1      -0.00632514       0.00488053       0.01370181
Pt       5.61441126       4.86793913      26.91724047        1       0.00165378      -0.02431114      -0.01465055
Pt       8.42022148       4.86136162      26.91333153        1       0.00738997       0.00304798       0.01373192
N        5.61442872       3.24149199      30.63975199        0      -0.00001407      -0.00000628      -0.02322767
H        4.79198617       3.71454952      30.24403758        0      -0.03275687       0.01882938       0.01694609
H        6.43532971       3.71721656      30.24403519        0       0.03269461       0.01896494       0.01694005
H        5.61596769       2.29270570      30.24404062        0       0.00007443      -0.03778756       0.01694481
