40
Lattice="8.421641763931781 0.0 0.0 4.2108208819658905 7.293355709136913 0.0 0.0 0.0 46.87624170604845" Properties=species:S:1:pos:R:3:tags:I:1:forces:R:3 charge=0 spin=0 energy=-206.42595935782555 free_energy=-206.42595935782555 stress="0.01049314346164465 -8.866437894994306e-08 4.540264608721145e-09 -8.866437894994306e-08 0.010493041016161442 1.9804278394985886e-07 4.540264608721145e-09 1.9804278394985886e-07 -4.032260039821267e-05" pbc="T T T"
Pt      -0.00000003       0.00000022      19.95723434        4      -0.00008355       0.00020431       0.01786859
Pt       2.80721396      -0.00000018      19.95723452        4      -0.00014339      -0.00018026       0.01785873
Pt       5.61442778      -0.00000004      19.95723454        4      -0.00018344      -0.00028789       0.01853544
Pt       1.40360719       2.43111838      19.95723440        4       0.00022530      -0.00002748       0.01785275
Pt       4.21082079       2.43111832      19.95723449        4       0.00036343       0.00010489       0.01877862
Pt       7.01803484       2.43111842      19.95723441        4      -0.00027232       0.00026106       0.01877758
Pt       2.80721406       4.86223725      19.95723409        4      -0.00015433       0.00030132       0.01853680
Pt       5.61442803       4.86223733      19.95723425        4      -0.00009499      -0.00036562       0.01877777
Pt       8.42164141       4.86223723      19.95723442        4       0.00034064      -0.00001739       0.01852209
Pt       1.40360730       0.81037260      22.29206788        3      -0.00000717       0.00001606      -0.04722434
Pt       4.21082126       0.81037254      22.29206791        3       0.00038154       0.00026745      -0.05252798
Pt       7.01803479       0.81037259      22.29206783        3       0.00051551       0.00071694      -0.05366150
Pt       2.80721452       3.24149125      22.29206775        3       0.00035415      -0.00081242      -0.05367966
Pt       5.61442760       3.24149123      22.29206789        3      -0.00000086       0.00000309      -0.04717116
Pt       8.42164156       3.24149116      22.29206803        3      -0.00040693       0.00019889      -0.05255798
Pt       4.21082093       5.67260998      22.29206800        3       0.00003301      -0.00047369      -0.05254005
Pt       7.01803487       5.67261039      22.29206775        3      -0.00089419       0.00006563      -0.05366310
Pt       9.82524824       5.67261062      22.29206803        3       0.00000823      -0.00001840      -0.05179164
Pt      -0.00000058       1.62074570      24.58417378        2       0.00210804      -0.00152183       0.05253862
Pt       2.80721444       1.62074548      24.58417392        2      -0.00236949      -0.00101545       0.05254923
Pt       5.61442778       1.62074537      24.58417373        2       0.00101048       0.00685231       0.03843646
Pt       1.40360636       4.05186440      24.58417384        2      -0.00102015      -0.00519568       0.03841435
Pt       4.21082088       4.05186399      24.58417380        2       0.00535372      -0.00432553       0.03831360
Pt       7.01803502       4.05186406      24.58417406        2      -0.00637476      -0.00256640       0.03831477
Pt       2.80721280       6.48298341      24.58417369        2       0.00502630       0.00175702       0.03845908
Pt       5.61442796       6.48298324      24.58417387        2       0.00029394       0.00266639       0.05244040
Pt       8.42164221       6.48298340      24.58417380        2      -0.00399361       0.00351230       0.03846326
Pt      -0.00210490      -0.00204539      26.91968073        1       0.01867980       0.01211180      -0.02092030
Pt       2.81007216      -0.00075330      26.91968309        1      -0.01990837       0.00997135      -0.02086540
Pt       5.61412104       0.00283609      26.91410411        1      -0.00039908      -0.01577661       0.00655382
Pt       1.40286917       2.43399647      26.91966994        1       0.00123528      -0.02225550      -0.02103868
Pt       4.20965570       2.43108781      26.92040584        1      -0.00197154      -0.00082288      -0.01854429
Pt       7.01867497       2.43014043      26.92040030        1       0.00169799      -0.00126785      -0.01853708
Pt       2.80981058       4.86111498      26.91407881        1      -0.01351294       0.00824663       0.00650643
Pt       5.61497355       4.86331512      26.92033941        1       0.00028813       0.00206215      -0.01830839
Pt       8.41936472       4.86057376      26.91408864        1       0.01388462       0.00759530       0.00651837
N        5.61441660       3.24279306      30.83920547        0      -0.00002597      -0.00027559      -0.02906175
H        6.08377096       4.06330020      30.43492703        0       0.02220246       0.04207529       0.01287787
H        6.09194949       2.42330156      30.44251144        0       0.02506734      -0.03982309       0.01316739
H        4.66755957       3.23626325      30.43871761        0      -0.04725271      -0.00196040       0.01303135
