40
Lattice="8.421641763931781 0.0 0.0 4.2108208819658905 7.293355709136913 0.0 0.0 0.0 46.87624170604845" Properties=species:S:1:pos:R:3:tags:I:1:forces:R:3 charge=0 spin=0 energy=-206.42695880850914 free_energy=-206.42695880850914 stress="0.010526580736041069 -7.232115422084462e-07 5.420331916639043e-08 -7.232115422084462e-07 0.010525909252464771 1.1085904816354741e-06 5.420331916639043e-08 1.1085904816354741e-06 -2.2438258383772336e-05" pbc="T T T"
Pt      -0.00000003       0.00000022      19.95723434        4      -0.00034556       0.00017946       0.01802160
Pt       2.80721396      -0.00000018      19.95723452        4       0.00000328      -0.00039827       0.01800209
Pt       5.61442778      -0.00000004      19.95723454        4      -0.00015407      -0.00008232       0.01847162
Pt       1.40360719       2.43111838      19.95723440        4       0.00034114       0.00021129       0.01799584
Pt       4.21082079       2.43111832      19.95723449        4       0.00006971      -0.00006170       0.01872270
Pt       7.01803484       2.43111842      19.95723441        4       0.00002327       0.00009410       0.01872166
Pt       2.80721406       4.86223725      19.95723409        4       0.00001296       0.00018503       0.01847667
Pt       5.61442803       4.86223733      19.95723425        4      -0.00009613      -0.00002427       0.01871076
Pt       8.42164141       4.86223723      19.95723442        4       0.00015805      -0.00010129       0.01846297
Pt       1.40360730       0.81037260      22.29206788        3       0.00002661       0.00003228      -0.04622451
Pt       4.21082126       0.81037254      22.29206791        3       0.00097459       0.00028703      -0.05237564
Pt       7.01803479       0.81037259      22.29206783        3      -0.00025032       0.00060381      -0.05212920
Pt       2.80721452       3.24149125      22.29206775        3       0.00062686      -0.00011630      -0.05213172
Pt       5.61442760       3.24149123      22.29206789        3       0.00001851       0.00002163      -0.05149749
Pt       8.42164156       3.24149116      22.29206803        3      -0.00072366       0.00068918      -0.05236861
Pt       4.21082093       5.67260998      22.29206800        3      -0.00021610      -0.00104430      -0.05233150
Pt       7.01803487       5.67261039      22.29206775        3      -0.00041919      -0.00051955      -0.05216961
Pt       9.82524824       5.67261062      22.29206803        3      -0.00000015      -0.00001742      -0.05451103
Pt      -0.00000058       1.62074570      24.58417378        2       0.00883191      -0.00435819       0.05321878
Pt       2.80721444       1.62074548      24.58417392        2      -0.00829261      -0.00542477       0.05308007
Pt       5.61442778       1.62074537      24.58417373        2       0.00092363      -0.00389481       0.02995253
Pt       1.40360636       4.05186440      24.58417384        2      -0.00104611      -0.00973561       0.05033310
Pt       4.21082088       4.05186399      24.58417380        2      -0.00405810       0.00113095       0.02955270
Pt       7.01803502       4.05186406      24.58417406        2       0.00316600       0.00247256       0.02962585
Pt       2.80721280       6.48298341      24.58417369        2       0.00892866       0.00406548       0.05042603
Pt       5.61442796       6.48298324      24.58417387        2      -0.00072786       0.01021957       0.05265936
Pt       8.42164221       6.48298340      24.58417380        2      -0.00782773       0.00580259       0.05034383
Pt       0.00040499       0.00086464      26.92336972        1      -0.00025644      -0.00144858      -0.03335678
Pt       2.80629142       0.00003012      26.92331024        1       0.00162956       0.00087505      -0.03315457
Pt       5.61404479       0.00047297      26.91623157        1       0.00030490      -0.00484323      -0.00414645
Pt       1.40405576       2.43036600      26.92335510        1      -0.00130125       0.00097772      -0.03315468
Pt       4.21133344       2.43167586      26.91503985        1      -0.01297525      -0.00694372       0.00556496
Pt       7.01732100       2.43131645      26.91513417        1       0.01249345      -0.00765791       0.00531854
Pt       2.80771227       4.86238339      26.91618522        1      -0.00426661       0.00208732      -0.00396909
Pt       5.61461091       4.86161579      26.91480724        1       0.00046947       0.01456669       0.00638804
Pt       8.42144877       4.86172106      26.91619002        1       0.00399426       0.00271438      -0.00397683
N        5.61445800       3.24678287      31.01095099        0       0.00022026      -0.00171798       0.02995742
H        5.13587201       2.41932162      30.63277988        0      -0.00716648      -0.00733293      -0.01109207
H        5.14314068       4.06425766      30.60304102        0      -0.00193657       0.00821834      -0.01194662
H        6.56428777       3.23515168      30.61792897        0       0.00884323       0.00028876      -0.01147088
