40
Lattice="8.421641763931781 0.0 0.0 4.2108208819658905 7.293355709136913 0.0 0.0 0.0 46.87624170604845" Properties=species:S:1:pos:R:3:tags:I:1:forces:R:3 charge=0 spin=0 energy=-206.42906452139977 free_energy=-206.42906452139977 stress="0.010530567727982998 -8.322552091932778e-10 1.571210361817066e-08 -8.322552091932778e-10 0.010530554689466953 -4.3222726731073635e-08 1.571210361817066e-08 -4.3222726731073635e-08 -4.568431177176535e-05" pbc="T T T"
Pt      -0.00000003       0.00000022      19.95723434        4      -0.00021787       0.00025278       0.01794995
Pt       2.80721396      -0.00000018      19.95723452        4      -0.00011704      -0.00031731       0.01793841
Pt       5.61442778      -0.00000004      19.95723454        4      -0.00015676      -0.00003124       0.01848307
Pt       1.40360719       2.43111838      19.95723440        4       0.00033337       0.00006263       0.01793725
Pt       4.21082079       2.43111832      19.95723449        4       0.00014401      -0.00006367       0.01870563
Pt       7.01803484       2.43111842      19.95723441        4      -0.00001439       0.00015340       0.01870237
Pt       2.80721406       4.86223725      19.95723409        4       0.00005386       0.00015115       0.01849164
Pt       5.61442803       4.86223733      19.95723425        4      -0.00013039      -0.00009420       0.01871214
Pt       8.42164141       4.86223723      19.95723442        4       0.00010951      -0.00012481       0.01847580
Pt       1.40360730       0.81037260      22.29206788        3      -0.00000123      -0.00000790      -0.04615405
Pt       4.21082126       0.81037254      22.29206791        3       0.00094369       0.00002832      -0.05223908
Pt       7.01803479       0.81037259      22.29206783        3      -0.00003836       0.00047061      -0.05243267
Pt       2.80721452       3.24149125      22.29206775        3       0.00043090      -0.00020484      -0.05243760
Pt       5.61442760       3.24149123      22.29206789        3       0.00000628      -0.00000117      -0.05014773
Pt       8.42164156       3.24149116      22.29206803        3      -0.00049514       0.00080403      -0.05224931
Pt       4.21082093       5.67260998      22.29206800        3      -0.00044763      -0.00083817      -0.05223433
Pt       7.01803487       5.67261039      22.29206775        3      -0.00039936      -0.00028329      -0.05245560
Pt       9.82524824       5.67261062      22.29206803        3       0.00000657      -0.00001302      -0.05499613
Pt      -0.00000058       1.62074570      24.58417378        2       0.00772813      -0.00449774       0.04884667
Pt       2.80721444       1.62074548      24.58417392        2      -0.00779433      -0.00437928       0.04876866
Pt       5.61442778       1.62074537      24.58417373        2       0.00053882      -0.00194455       0.02940861
Pt       1.40360636       4.05186440      24.58417384        2      -0.00108132      -0.00988395       0.04573119
Pt       4.21082088       4.05186399      24.58417380        2      -0.00200175       0.00054377       0.02930145
Pt       7.01803502       4.05186406      24.58417406        2       0.00145752       0.00140292       0.02933704
Pt       2.80721280       6.48298341      24.58417369        2       0.00909626       0.00402574       0.04577973
Pt       5.61442796       6.48298324      24.58417387        2       0.00001041       0.00896746       0.04874218
Pt       8.42164221       6.48298340      24.58417380        2      -0.00797793       0.00589860       0.04574283
Pt       0.00098996       0.00004617      26.92234548        1      -0.00262352      -0.00009036      -0.02938872
Pt       2.80668954       0.00086973      26.92230659        1       0.00140021      -0.00224275      -0.02924890
Pt       5.61427972       0.00053120      26.91508595        1      -0.00094349      -0.00369456       0.00014480
Pt       1.40313279       2.43026029      26.92234218        1       0.00123402       0.00231256      -0.02938482
Pt       4.21030683       2.43145132      26.91511960        1      -0.00552645      -0.00344847       0.00511854
Pt       7.01803666       2.43053016      26.91514353        1       0.00566847      -0.00303785       0.00501708
Pt       2.80770593       4.86214128      26.91506236        1      -0.00268151       0.00260743       0.00023055
Pt       5.61494018       4.86254449      26.91509736        1      -0.00017654       0.00647187       0.00517473
Pt       8.42127399       4.86187101      26.91505674        1       0.00366639       0.00104640       0.00024046
N        5.61442988       3.24149135      30.99587205        0      -0.00008527       0.00003066      -0.00879811
H        6.42852667       2.75015676      30.60232385        0      -0.02679310       0.01630046       0.00303928
H        4.78186784       2.78212918      30.60232920        0       0.02758394       0.01510443       0.00307701
H        5.63288699       4.19219374      30.60233280        0      -0.00070894      -0.03143588       0.00307016
