40
Lattice="8.421641763931781 0.0 0.0 4.2108208819658905 7.293355709136913 0.0 0.0 0.0 46.87624170604845" Properties=species:S:1:pos:R:3:tags:I:1:forces:R:3 charge=0 spin=0 energy=-206.4247062297738 free_energy=-206.4247062297738 stress="0.010460695251822472 1.6959480930722748e-08 -2.5628743571814994e-09 1.6959480930722748e-08 0.010460673831403255 -1.3646570096170763e-08 -2.5628743571814994e-09 -1.3646570096170763e-08 -0.0001559461816214025" pbc="T T T"
Pt      -0.00000003       0.00000022      19.95723434        4       0.00003177       0.00026737       0.01772213
Pt       2.80721396      -0.00000018      19.95723452        4      -0.00025175      -0.00010739       0.01771176
Pt       5.61442778      -0.00000004      19.95723454        4      -0.00011319      -0.00060217       0.01846503
Pt       1.40360719       2.43111838      19.95723440        4       0.00022102      -0.00016025       0.01771127
Pt       4.21082079       2.43111832      19.95723449        4       0.00011330      -0.00009278       0.01888375
Pt       7.01803484       2.43111842      19.95723441        4       0.00002413       0.00014143       0.01888055
Pt       2.80721406       4.86223725      19.95723409        4      -0.00046384       0.00039909       0.01847198
Pt       5.61442803       4.86223733      19.95723425        4      -0.00013949      -0.00005012       0.01888748
Pt       8.42164141       4.86223723      19.95723442        4       0.00058050       0.00020118       0.01845659
Pt       1.40360730       0.81037260      22.29206788        3      -0.00000218       0.00000232      -0.04390730
Pt       4.21082126       0.81037254      22.29206791        3       0.00086927       0.00099179      -0.05256430
Pt       7.01803479       0.81037259      22.29206783        3       0.00010100       0.00117839      -0.05379624
Pt       2.80721452       3.24149125      22.29206775        3       0.00096558      -0.00066888      -0.05380791
Pt       5.61442760       3.24149123      22.29206789        3       0.00000233       0.00000150      -0.05007367
Pt       8.42164156       3.24149116      22.29206803        3      -0.00128026       0.00026205      -0.05258645
Pt       4.21082093       5.67260998      22.29206800        3       0.00041230      -0.00124745      -0.05256699
Pt       7.01803487       5.67261039      22.29206775        3      -0.00107478      -0.00051598      -0.05380808
Pt       9.82524824       5.67261062      22.29206803        3       0.00001070      -0.00001240      -0.05001445
Pt      -0.00000058       1.62074570      24.58417378        2       0.00518125      -0.00348507       0.03446241
Pt       2.80721444       1.62074548      24.58417392        2      -0.00561506      -0.00274562       0.03445582
Pt       5.61442778       1.62074537      24.58417373        2       0.00142337       0.00309330       0.02689245
Pt       1.40360636       4.05186440      24.58417384        2      -0.00076526      -0.00427063       0.02102547
Pt       4.21082088       4.05186399      24.58417380        2       0.00195140      -0.00277181       0.02685548
Pt       7.01803502       4.05186406      24.58417406        2      -0.00338516      -0.00030307       0.02686633
Pt       2.80721280       6.48298341      24.58417369        2       0.00410288       0.00148949       0.02106069
Pt       5.61442796       6.48298324      24.58417387        2       0.00043137       0.00621967       0.03445834
Pt       8.42164221       6.48298340      24.58417380        2      -0.00334033       0.00280959       0.02106434
Pt      -0.00380838      -0.00308619      26.91601226        1       0.02973939       0.01920344      -0.00299760
Pt       2.81179199      -0.00174263      26.91601706        1      -0.03151365       0.01614364      -0.00295608
Pt       5.61370346      -0.00067316      26.91307804        1       0.00179793       0.00950354       0.01609474
Pt       1.40282966       2.43596420      26.91599745        1       0.00178089      -0.03537837      -0.00309645
Pt       4.20716688       2.42977131      26.91477049        1       0.01472469       0.00891115      -0.00093280
Pt       7.02103280       2.42863873      26.91476967        1      -0.01506874       0.00829698      -0.00095670
Pt       2.80698222       4.86320689      26.91306529        1       0.00729388      -0.00630320       0.01600907
Pt       5.61507782       4.86608277      26.91477174        1       0.00035674      -0.01722718      -0.00088549
Pt       8.42259042       4.86195611      26.91306935        1      -0.00910240      -0.00317272       0.01603429
N        5.61445239       3.24153226      30.74649130        0       0.00000531       0.00005397      -0.04123861
H        4.67338485       3.37612689      30.35221955        0       0.02116347      -0.00454815       0.01857485
H        6.20161775       3.98906931      30.35202603        0      -0.01456491      -0.01606056       0.01859992
H        5.96832311       2.35911264      30.35243153        0      -0.00660331       0.02055418       0.01854427
