40
Lattice="8.421641763931781 0.0 0.0 4.2108208819658905 7.293355709136913 0.0 0.0 0.0 46.87624170604845" Properties=species:S:1:pos:R:3:tags:I:1:forces:R:3 charge=0 spin=0 energy=-206.4284961315072 free_energy=-206.4284961315072 stress="0.010476912371814251 -4.282503685004713e-09 -2.2535157739866918e-08 -4.282503685004713e-09 0.010476959869265556 -1.8790728972817305e-08 -2.2535157739866918e-08 -1.8790728972817305e-08 -0.0001532747846795246" pbc="T T T"
Pt      -0.00000003       0.00000022      19.95723434        4      -0.00039435       0.00000443       0.01775472
Pt       2.80721396      -0.00000018      19.95723452        4       0.00018630      -0.00034583       0.01774503
Pt       5.61442778      -0.00000004      19.95723454        4      -0.00010438       0.00002600       0.01853248
Pt       1.40360719       2.43111838      19.95723440        4       0.00020723       0.00034063       0.01774669
Pt       4.21082079       2.43111832      19.95723449        4       0.00034988       0.00015986       0.01871292
Pt       7.01803484       2.43111842      19.95723441        4      -0.00031276       0.00022098       0.01871010
Pt       2.80721406       4.86223725      19.95723409        4       0.00007734       0.00007689       0.01853587
Pt       5.61442803       4.86223733      19.95723425        4      -0.00004052      -0.00037988       0.01871091
Pt       8.42164141       4.86223723      19.95723442        4       0.00002938      -0.00010470       0.01852173
Pt       1.40360730       0.81037260      22.29206788        3      -0.00000386       0.00000187      -0.05126849
Pt       4.21082126       0.81037254      22.29206791        3      -0.00027331       0.00053838      -0.05207619
Pt       7.01803479       0.81037259      22.29206783        3       0.00091967       0.00091945      -0.05234731
Pt       2.80721452       3.24149125      22.29206775        3       0.00032939      -0.00124354      -0.05236275
Pt       5.61442760       3.24149123      22.29206789        3       0.00000110       0.00000902      -0.04836613
Pt       8.42164156       3.24149116      22.29206803        3      -0.00032085      -0.00049087      -0.05210093
Pt       4.21082093       5.67260998      22.29206800        3       0.00058669      -0.00002681      -0.05209463
Pt       7.01803487       5.67261039      22.29206775        3      -0.00126389       0.00033173      -0.05236619
Pt       9.82524824       5.67261062      22.29206803        3       0.00000652      -0.00000647      -0.05059789
Pt      -0.00000058       1.62074570      24.58417378        2      -0.00718331       0.00391787       0.02442368
Pt       2.80721444       1.62074548      24.58417392        2       0.00697975       0.00427169       0.02440640
Pt       5.61442778       1.62074537      24.58417373        2       0.00043125       0.00050219       0.02982892
Pt       1.40360636       4.05186440      24.58417384        2      -0.00080155       0.00339699       0.02890181
Pt       4.21082088       4.05186399      24.58417380        2       0.00021269      -0.00061057       0.02981550
Pt       7.01803502       4.05186406      24.58417406        2      -0.00063647       0.00013208       0.02983375
Pt       2.80721280       6.48298341      24.58417369        2      -0.00251962      -0.00238219       0.02893660
Pt       5.61442796       6.48298324      24.58417387        2       0.00021020      -0.00819112       0.02444043
Pt       8.42164221       6.48298340      24.58417380        2       0.00332307      -0.00099229       0.02893969
Pt      -0.00011642      -0.00038238      26.91031980        1      -0.00134725      -0.00037999       0.01744469
Pt       2.80760764       0.00009964      26.91032363        1       0.00097906      -0.00102277       0.01746147
Pt       5.61385015       0.00147091      26.91507636        1       0.00045801      -0.00925804       0.00154804
Pt       1.40332871       2.43140263      26.91030627        1       0.00037760       0.00133939       0.01746210
Pt       4.21244035       2.43279651      26.91818673        1      -0.01549542      -0.00947103      -0.00548349
Pt       7.01577236       2.43168293      26.91818621        1       0.01595310      -0.00866558      -0.00548923
Pt       2.80876516       4.86200381      26.91506108        1      -0.00823632       0.00422697       0.00151045
Pt       5.61507045       4.85999898      26.91818804        1      -0.00046621       0.01813823      -0.00552484
Pt       8.42066591       4.86100445      26.91506542        1       0.00778431       0.00501874       0.00152372
N        5.61442932       3.24148918      30.88566972        0       0.00003208      -0.00007105      -0.00757042
H        6.43191116       2.75311620      30.49484163        0      -0.04215832       0.02513337       0.00541675
H        4.78274450       2.77771508      30.49484782        0       0.04280718       0.02393411       0.00539955
H        5.62863074       4.19363545      30.49484880        0      -0.00068346      -0.04899808       0.00538461
