40
Lattice="8.421641763931781 0.0 0.0 4.2108208819658905 7.293355709136913 0.0 0.0 0.0 46.87624170604845" Properties=species:S:1:pos:R:3:tags:I:1:forces:R:3 charge=0 spin=0 energy=-206.42601085623863 free_energy=-206.42601085623863 stress="0.010491237975656986 -6.248751560633536e-07 1.7078464864539455e-08 -6.248751560633536e-07 0.010490959510207176 5.555393727263436e-07 1.7078464864539455e-08 5.555393727263436e-07 -4.361038372735493e-05" pbc="T T T"
Pt      -0.00000003       0.00000022      19.95723434        4      -0.00012448       0.00027984       0.01784291
Pt       2.80721396      -0.00000018      19.95723452        4      -0.00019284      -0.00026038       0.01782574
Pt       5.61442778      -0.00000004      19.95723454        4      -0.00017718      -0.00025932       0.01852433
Pt       1.40360719       2.43111838      19.95723440        4       0.00031791      -0.00003090       0.01781986
Pt       4.21082079       2.43111832      19.95723449        4       0.00030214       0.00015489       0.01881006
Pt       7.01803484       2.43111842      19.95723441        4      -0.00028370       0.00018371       0.01880684
Pt       2.80721406       4.86223725      19.95723409        4      -0.00012952       0.00028658       0.01852361
Pt       5.61442803       4.86223733      19.95723425        4      -0.00002368      -0.00033562       0.01880162
Pt       8.42164141       4.86223723      19.95723442        4       0.00031591      -0.00003243       0.01851225
Pt       1.40360730       0.81037260      22.29206788        3       0.00002249       0.00003446      -0.04714249
Pt       4.21082126       0.81037254      22.29206791        3       0.00021946       0.00019015      -0.05315936
Pt       7.01803479       0.81037259      22.29206783        3       0.00039807       0.00070461      -0.05298463
Pt       2.80721452       3.24149125      22.29206775        3       0.00038837      -0.00072297      -0.05301080
Pt       5.61442760       3.24149123      22.29206789        3       0.00000799       0.00000634      -0.04731946
Pt       8.42164156       3.24149116      22.29206803        3      -0.00025374       0.00007404      -0.05318616
Pt       4.21082093       5.67260998      22.29206800        3       0.00006608      -0.00033419      -0.05312635
Pt       7.01803487       5.67261039      22.29206775        3      -0.00082747      -0.00001619      -0.05301002
Pt       9.82524824       5.67261062      22.29206803        3       0.00000909      -0.00002854      -0.05175946
Pt      -0.00000058       1.62074570      24.58417378        2       0.00248723      -0.00116165       0.05186022
Pt       2.80721444       1.62074548      24.58417392        2      -0.00234739      -0.00150399       0.05181438
Pt       5.61442778       1.62074537      24.58417373        2       0.00131895       0.00723530       0.03815618
Pt       1.40360636       4.05186440      24.58417384        2      -0.00083999      -0.00474606       0.03806726
Pt       4.21082088       4.05186399      24.58417380        2       0.00543491      -0.00475424       0.03783810
Pt       7.01803502       4.05186406      24.58417406        2      -0.00674954      -0.00259692       0.03790322
Pt       2.80721280       6.48298341      24.58417369        2       0.00454292       0.00173960       0.03811644
Pt       5.61442796       6.48298324      24.58417387        2      -0.00022152       0.00304281       0.05155351
Pt       8.42164221       6.48298340      24.58417380        2      -0.00369327       0.00315532       0.03809340
Pt      -0.00285152      -0.00099802      26.91942057        1       0.02116065       0.01133875      -0.01995811
Pt       2.80956897      -0.00183425      26.91941293        1      -0.02064325       0.01220733      -0.01993502
Pt       5.61417748       0.00301384      26.91408008        1      -0.00015550      -0.01620573       0.00673147
Pt       1.40406823       2.43414764      26.91941529        1      -0.00052185      -0.02401453      -0.02012859
Pt       4.20989152       2.43035258      26.92032131        1      -0.00168527       0.00190923      -0.01808593
Pt       7.01918853       2.43076196      26.92037222        1      -0.00075779      -0.00238869      -0.01820924
Pt       2.80988841       4.86100685      26.91404425        1      -0.01400106       0.00826296       0.00674540
Pt       5.61418994       4.86353218      26.92017163        1       0.00247919       0.00044552      -0.01762817
Pt       8.41918706       4.86057246      26.91404860        1       0.01414544       0.00806003       0.00673919
N        5.61441487       3.24508589      30.84431930        0      -0.00009623      -0.00147311      -0.02735311
H        5.14429620       2.41808476      30.45445692        0      -0.02530538      -0.03977080       0.01274019
H        5.13754535       4.05820150      30.43390910        0      -0.02105630       0.04079094       0.01191169
H        6.56142692       3.24371274      30.44416181        0       0.04647048       0.00053379       0.01225891
