40
Lattice="8.421641763931781 0.0 0.0 4.2108208819658905 7.293355709136913 0.0 0.0 0.0 46.87624170604845" Properties=species:S:1:pos:R:3:tags:I:1:forces:R:3 charge=0 spin=0 energy=-206.4241778942025 free_energy=-206.4241778942025 stress="0.010423648171126842 -4.1865114042138885e-08 -3.4538047088972235e-08 -4.1865114042138885e-08 0.010423812083899975 9.37768973585662e-08 -3.4538047088972235e-08 9.37768973585662e-08 -0.00023295363644137979" pbc="T T T"
Pt      -0.00000003       0.00000022      19.95723434        4      -0.00054839      -0.00008671       0.01768034
Pt       2.80721396      -0.00000018      19.95723452        4       0.00034393      -0.00043232       0.01766857
Pt       5.61442778      -0.00000004      19.95723454        4      -0.00010175      -0.00026700       0.01850133
Pt       1.40360719       2.43111838      19.95723440        4       0.00020354       0.00051771       0.01767446
Pt       4.21082079       2.43111832      19.95723449        4       0.00014317      -0.00012333       0.01865090
Pt       7.01803484       2.43111842      19.95723441        4       0.00003517       0.00018268       0.01864946
Pt       2.80721406       4.86223725      19.95723409        4      -0.00017897       0.00022107       0.01851265
Pt       5.61442803       4.86223733      19.95723425        4      -0.00018197      -0.00005849       0.01865455
Pt       8.42164141       4.86223723      19.95723442        4       0.00028379       0.00004484       0.01849770
Pt       1.40360730       0.81037260      22.29206788        3      -0.00000602       0.00000296      -0.04670591
Pt       4.21082126       0.81037254      22.29206791        3       0.00093897       0.00151481      -0.05151222
Pt       7.01803479       0.81037259      22.29206783        3      -0.00017083       0.00150466      -0.05228004
Pt       2.80721452       3.24149125      22.29206775        3       0.00137896      -0.00059210      -0.05228585
Pt       5.61442760       3.24149123      22.29206789        3       0.00000183       0.00000623      -0.05367624
Pt       8.42164156       3.24149116      22.29206803        3      -0.00176922       0.00007329      -0.05152608
Pt       4.21082093       5.67260998      22.29206800        3       0.00082390      -0.00156616      -0.05151317
Pt       7.01803487       5.67261039      22.29206775        3      -0.00122505      -0.00090219      -0.05229278
Pt       9.82524824       5.67261062      22.29206803        3       0.00000690      -0.00000484      -0.05010579
Pt      -0.00000058       1.62074570      24.58417378        2       0.00354906      -0.00124563       0.01125116
Pt       2.80721444       1.62074548      24.58417392        2      -0.00286500      -0.00242766       0.01122640
Pt       5.61442778       1.62074537      24.58417373        2       0.00023307      -0.01390657       0.00258828
Pt       1.40360636       4.05186440      24.58417384        2      -0.00147109       0.00330750       0.03534345
Pt       4.21082088       4.05186399      24.58417380        2      -0.01216067       0.00676821       0.00257081
Pt       7.01803502       4.05186406      24.58417406        2       0.01193172       0.00716987       0.00257308
Pt       2.80721280       6.48298341      24.58417369        2      -0.00209614      -0.00292691       0.03537846
Pt       5.61442796       6.48298324      24.58417387        2      -0.00068586       0.00368628       0.01124918
Pt       8.42164221       6.48298340      24.58417380        2       0.00357635      -0.00036146       0.03536513
Pt       0.00063081       0.00088885      26.91184592        1      -0.01033388      -0.00897725       0.01338440
Pt       2.80612863       0.00010657      26.91184857        1       0.01292852      -0.00449594       0.01342810
Pt       5.61416138       0.00090585      26.91714086        1      -0.00175560      -0.01815511      -0.00538807
Pt       1.40405731       2.43012871      26.91184134        1      -0.00257239       0.01343725       0.01321097
Pt       4.21193306       2.43345675      26.90748278        1      -0.02171711      -0.01882130       0.03887922
Pt       7.01545348       2.43091723      26.90748097        1       0.02716360      -0.00938345       0.03885204
Pt       2.80812773       4.86201894      26.91713581        1      -0.01485265       0.01056489      -0.00547978
Pt       5.61589217       4.86010601      26.90748546        1      -0.00544654       0.02818290       0.03895818
Pt       8.42098988       4.86155806      26.91713501        1       0.01660250       0.00755340      -0.00546324
N        5.61438778       3.24144688      30.80465099        0       0.00010454       0.00007801      -0.02124994
H        4.88150270       3.84827894      30.41245715        0       0.02821375      -0.02172216       0.01024099
H        6.50639715       3.57274628      30.41255427        0      -0.03275025      -0.01367411       0.01027700
H        5.45535436       2.30329189      30.41253640        0       0.00442623       0.03531407       0.01021246
