40
Lattice="8.421641763931781 0.0 0.0 4.2108208819658905 7.293355709136913 0.0 0.0 0.0 46.87624170604845" Properties=species:S:1:pos:R:3:tags:I:1:forces:R:3 charge=0 spin=0 energy=-206.4290607067025 free_energy=-206.4290607067025 stress="0.01053056214004755 -1.015558481753942e-08 1.3845412594193363e-09 -1.015558481753942e-08 0.010530510917305946 -3.085759558985046e-08 1.3845412594193363e-09 -3.085759558985046e-08 -4.576714491122402e-05" pbc="T T T"
Pt      -0.00000003       0.00000022      19.95723434        4      -0.00021773       0.00025271       0.01794957
Pt       2.80721396      -0.00000018      19.95723452        4      -0.00011720      -0.00031752       0.01793822
Pt       5.61442778      -0.00000004      19.95723454        4      -0.00015681      -0.00003136       0.01848330
Pt       1.40360719       2.43111838      19.95723440        4       0.00033357       0.00006243       0.01793714
Pt       4.21082079       2.43111832      19.95723449        4       0.00014391      -0.00006398       0.01870578
Pt       7.01803484       2.43111842      19.95723441        4      -0.00001413       0.00015342       0.01870207
Pt       2.80721406       4.86223725      19.95723409        4       0.00005394       0.00015123       0.01849162
Pt       5.61442803       4.86223733      19.95723425        4      -0.00013045      -0.00009384       0.01871193
Pt       8.42164141       4.86223723      19.95723442        4       0.00010951      -0.00012465       0.01847595
Pt       1.40360730       0.81037260      22.29206788        3      -0.00000138      -0.00000761      -0.04615012
Pt       4.21082126       0.81037254      22.29206791        3       0.00094431       0.00002914      -0.05223734
Pt       7.01803479       0.81037259      22.29206783        3      -0.00003873       0.00047071      -0.05243215
Pt       2.80721452       3.24149125      22.29206775        3       0.00043114      -0.00020475      -0.05243724
Pt       5.61442760       3.24149123      22.29206789        3       0.00000646      -0.00000139      -0.05015079
Pt       8.42164156       3.24149116      22.29206803        3      -0.00049536       0.00080406      -0.05224947
Pt       4.21082093       5.67260998      22.29206800        3      -0.00044778      -0.00083876      -0.05223484
Pt       7.01803487       5.67261039      22.29206775        3      -0.00039909      -0.00028376      -0.05245503
Pt       9.82524824       5.67261062      22.29206803        3       0.00000613      -0.00001327      -0.05499664
Pt      -0.00000058       1.62074570      24.58417378        2       0.00773364      -0.00450090       0.04883113
Pt       2.80721444       1.62074548      24.58417392        2      -0.00779782      -0.00438335       0.04875853
Pt       5.61442778       1.62074537      24.58417373        2       0.00053749      -0.00194938       0.02939447
Pt       1.40360636       4.05186440      24.58417384        2      -0.00108068      -0.00988485       0.04572750
Pt       4.21082088       4.05186399      24.58417380        2      -0.00200852       0.00054495       0.02928932
Pt       7.01803502       4.05186406      24.58417406        2       0.00146313       0.00140687       0.02932276
Pt       2.80721280       6.48298341      24.58417369        2       0.00909878       0.00402559       0.04577332
Pt       5.61442796       6.48298324      24.58417387        2       0.00001150       0.00897550       0.04872961
Pt       8.42164221       6.48298340      24.58417380        2      -0.00798218       0.00589973       0.04573766
Pt       0.00099102       0.00004704      26.92234650        1      -0.00262978      -0.00009328      -0.02939440
Pt       2.80668864       0.00087041      26.92230841        1       0.00140737      -0.00224687      -0.02925963
Pt       5.61427963       0.00052863      26.91508537        1      -0.00094428      -0.00367964       0.00015335
Pt       1.40313301       2.43025894      26.92234311        1       0.00123218       0.00232361      -0.02938130
Pt       4.21030462       2.43145017      26.91511395        1      -0.00551773      -0.00344118       0.00513940
Pt       7.01803929       2.43052901      26.91513634        1       0.00565615      -0.00303045       0.00504530
Pt       2.80770374       4.86214273      26.91506176        1      -0.00266930       0.00260012       0.00023111
Pt       5.61493996       4.86254785      26.91509140        1      -0.00017688       0.00645414       0.00520442
Pt       8.42127602       4.86187252      26.91505536        1       0.00365611       0.00103893       0.00024245
N        5.61442932       3.24149089      30.99573111        0      -0.00001639      -0.00002359      -0.00884993
H        4.78186760       2.78212704      30.60218876        0       0.02760870       0.01511777       0.00309070
H        5.63288449       4.19219435      30.60219303        0      -0.00070863      -0.03145055       0.00307921
H        6.42852968       2.75015740      30.60218076        0      -0.02688309       0.01635396       0.00308303
