40
Lattice="8.421641763931781 0.0 0.0 4.2108208819658905 7.293355709136913 0.0 0.0 0.0 46.87624170604845" Properties=species:S:1:pos:R:3:tags:I:1:forces:R:3 charge=0 spin=0 energy=-206.42696643790367 free_energy=-206.42696643790367 stress="0.010526571422815323 -7.18440901437134e-07 6.219389092620986e-08 -7.18440901437134e-07 0.01052588690072298 1.1023710158042377e-06 6.219389092620986e-08 1.1023710158042377e-06 -2.2425725546781905e-05" pbc="T T T"
Pt      -0.00000003       0.00000022      19.95723434        4      -0.00034575       0.00017920       0.01802188
Pt       2.80721396      -0.00000018      19.95723452        4       0.00000344      -0.00039850       0.01800216
Pt       5.61442778      -0.00000004      19.95723454        4      -0.00015425      -0.00008244       0.01847162
Pt       1.40360719       2.43111838      19.95723440        4       0.00034123       0.00021171       0.01799592
Pt       4.21082079       2.43111832      19.95723449        4       0.00007001      -0.00006146       0.01872283
Pt       7.01803484       2.43111842      19.95723441        4       0.00002282       0.00009425       0.01872160
Pt       2.80721406       4.86223725      19.95723409        4       0.00001285       0.00018490       0.01847679
Pt       5.61442803       4.86223733      19.95723425        4      -0.00009615      -0.00002468       0.01871095
Pt       8.42164141       4.86223723      19.95723442        4       0.00015813      -0.00010118       0.01846297
Pt       1.40360730       0.81037260      22.29206788        3       0.00002690       0.00003219      -0.04622724
Pt       4.21082126       0.81037254      22.29206791        3       0.00097412       0.00028671      -0.05237585
Pt       7.01803479       0.81037259      22.29206783        3      -0.00024967       0.00060327      -0.05212951
Pt       2.80721452       3.24149125      22.29206775        3       0.00062690      -0.00011618      -0.05213217
Pt       5.61442760       3.24149123      22.29206789        3       0.00001877       0.00002152      -0.05149630
Pt       8.42164156       3.24149116      22.29206803        3      -0.00072333       0.00068949      -0.05236844
Pt       4.21082093       5.67260998      22.29206800        3      -0.00021602      -0.00104428      -0.05233055
Pt       7.01803487       5.67261039      22.29206775        3      -0.00041958      -0.00051903      -0.05217021
Pt       9.82524824       5.67261062      22.29206803        3      -0.00000001      -0.00001745      -0.05450924
Pt      -0.00000058       1.62074570      24.58417378        2       0.00883073      -0.00435554       0.05322549
Pt       2.80721444       1.62074548      24.58417392        2      -0.00829156      -0.00542457       0.05308656
Pt       5.61442778       1.62074537      24.58417373        2       0.00092312      -0.00389339       0.02995156
Pt       1.40360636       4.05186440      24.58417384        2      -0.00104856      -0.00973317       0.05033724
Pt       4.21082088       4.05186399      24.58417380        2      -0.00405678       0.00113109       0.02955070
Pt       7.01803502       4.05186406      24.58417406        2       0.00316720       0.00247225       0.02962568
Pt       2.80721280       6.48298341      24.58417369        2       0.00892601       0.00406414       0.05042592
Pt       5.61442796       6.48298324      24.58417387        2      -0.00072590       0.01021780       0.05266386
Pt       8.42164221       6.48298340      24.58417380        2      -0.00782581       0.00580035       0.05034816
Pt       0.00040395       0.00086376      26.92336869        1      -0.00024468      -0.00143947      -0.03335370
Pt       2.80629332       0.00002921      26.92330925        1       0.00161652       0.00088031      -0.03315714
Pt       5.61404515       0.00047562      26.91623157        1       0.00030370      -0.00486065      -0.00414679
Pt       1.40405630       2.43036788      26.92335453        1      -0.00130281       0.00096423      -0.03315756
Pt       4.21133560       2.43167749      26.91504027        1      -0.01299222      -0.00695514       0.00555995
Pt       7.01731868       2.43131802      26.91513618        1       0.01251426      -0.00766851       0.00531443
Pt       2.80771430       4.86238245      26.91618453        1      -0.00428041       0.00209520      -0.00396935
Pt       5.61461142       4.86161299      26.91480868        1       0.00046693       0.01458727       0.00638412
Pt       8.42144664       4.86171989      26.91619036        1       0.00401069       0.00272189      -0.00398529
N        5.61445714       3.24678263      31.01101421        0       0.00019056      -0.00169036       0.02999852
H        5.14314252       4.06425613      30.60310104        0      -0.00195504       0.00824226      -0.01195048
H        6.56428673       3.23515286      30.61799901        0       0.00889696       0.00027304      -0.01149187
H        5.13587195       2.41932264      30.63284353        0      -0.00717341      -0.00736682      -0.01110728
