40
Lattice="8.421641763931781 0.0 0.0 4.2108208819658905 7.293355709136913 0.0 0.0 0.0 46.87624170604845" Properties=species:S:1:pos:R:3:tags:I:1:forces:R:3 charge=0 spin=0 energy=-206.42471004447106 free_energy=-206.42471004447106 stress="0.01046072132885456 6.994396173354289e-09 -5.913758371889344e-09 6.994396173354289e-09 0.010460728779435158 -5.0999724443556715e-09 -5.913758371889344e-09 -5.0999724443556715e-09 -0.00015589906251989305" pbc="T T T"
Pt      -0.00000003       0.00000022      19.95723434        4       0.00003181       0.00026745       0.01772215
Pt       2.80721396      -0.00000018      19.95723452        4      -0.00025179      -0.00010741       0.01771146
Pt       5.61442778      -0.00000004      19.95723454        4      -0.00011303      -0.00060212       0.01846505
Pt       1.40360719       2.43111838      19.95723440        4       0.00022103      -0.00016027       0.01771104
Pt       4.21082079       2.43111832      19.95723449        4       0.00011338      -0.00009258       0.01888379
Pt       7.01803484       2.43111842      19.95723441        4       0.00002423       0.00014152       0.01888076
Pt       2.80721406       4.86223725      19.95723409        4      -0.00046362       0.00039897       0.01847202
Pt       5.61442803       4.86223733      19.95723425        4      -0.00013967      -0.00005002       0.01888763
Pt       8.42164141       4.86223723      19.95723442        4       0.00058073       0.00020104       0.01845669
Pt       1.40360730       0.81037260      22.29206788        3      -0.00000224       0.00000210      -0.04390867
Pt       4.21082126       0.81037254      22.29206791        3       0.00086934       0.00099129      -0.05256453
Pt       7.01803479       0.81037259      22.29206783        3       0.00010098       0.00117820      -0.05379805
Pt       2.80721452       3.24149125      22.29206775        3       0.00096577      -0.00066908      -0.05380843
Pt       5.61442760       3.24149123      22.29206789        3       0.00000282       0.00000097      -0.05007086
Pt       8.42164156       3.24149116      22.29206803        3      -0.00128045       0.00026233      -0.05258567
Pt       4.21082093       5.67260998      22.29206800        3       0.00041228      -0.00124722      -0.05256655
Pt       7.01803487       5.67261039      22.29206775        3      -0.00107451      -0.00051568      -0.05380865
Pt       9.82524824       5.67261062      22.29206803        3       0.00001086      -0.00001272      -0.05001447
Pt      -0.00000058       1.62074570      24.58417378        2       0.00518174      -0.00348284       0.03447114
Pt       2.80721444       1.62074548      24.58417392        2      -0.00561404      -0.00274171       0.03446541
Pt       5.61442778       1.62074537      24.58417373        2       0.00142160       0.00309706       0.02689935
Pt       1.40360636       4.05186440      24.58417384        2      -0.00076537      -0.00427485       0.02103231
Pt       4.21082088       4.05186399      24.58417380        2       0.00195458      -0.00277381       0.02686387
Pt       7.01803502       4.05186406      24.58417406        2      -0.00338891      -0.00030324       0.02687355
Pt       2.80721280       6.48298341      24.58417369        2       0.00410398       0.00149014       0.02106554
Pt       5.61442796       6.48298324      24.58417387        2       0.00042962       0.00621607       0.03446533
Pt       8.42164221       6.48298340      24.58417380        2      -0.00334112       0.00281005       0.02106951
Pt      -0.00380773      -0.00308568      26.91601401        1       0.02974028       0.01919395      -0.00300302
Pt       2.81179069      -0.00174214      26.91601841        1      -0.03150694       0.01614349      -0.00295972
Pt       5.61370299      -0.00067213      26.91307788        1       0.00179567       0.00949724       0.01609319
Pt       1.40282943       2.43596310      26.91599983        1       0.00177899      -0.03537234      -0.00311403
Pt       4.20716683       2.42977146      26.91477369        1       0.01472267       0.00891163      -0.00094917
Pt       7.02103216       2.42863889      26.91477285        1      -0.01506792       0.00829725      -0.00096327
Pt       2.80698304       4.86320643      26.91306499        1       0.00728991      -0.00629887       0.01600852
Pt       5.61507736       4.86608245      26.91477530        1       0.00035633      -0.01722714      -0.00090161
Pt       8.42258944       4.86195549      26.91306934        1      -0.00909746      -0.00317070       0.01603219
N        5.61445305       3.24153342      30.74646093        0       0.00004137      -0.00003085      -0.04127292
H        6.20161464       3.98907225      30.35199493        0      -0.01457220      -0.01606149       0.01860284
H        5.96832787       2.35911357      30.35240145        0      -0.00663458       0.02063591       0.01858122
H        4.67338398       3.37612254      30.35219049        0       0.02116419      -0.00454161       0.01857519
