40
Lattice="8.421641763931781 0.0 0.0 4.2108208819658905 7.293355709136913 0.0 0.0 0.0 46.87624170604845" Properties=species:S:1:pos:R:3:tags:I:1:forces:R:3 charge=0 spin=0 energy=-206.4241836162484 free_energy=-206.4241836162484 stress="0.010423609986901283 -4.535638709057821e-08 -3.267296477815762e-08 -4.535638709057821e-08 0.010423790663480759 9.418931767868344e-08 -3.267296477815762e-08 9.418931767868344e-08 -0.00023304609931074083" pbc="T T T"
Pt      -0.00000003       0.00000022      19.95723434        4      -0.00054897      -0.00008717       0.01768040
Pt       2.80721396      -0.00000018      19.95723452        4       0.00034430      -0.00043252       0.01766859
Pt       5.61442778      -0.00000004      19.95723454        4      -0.00010183      -0.00026678       0.01850124
Pt       1.40360719       2.43111838      19.95723440        4       0.00020338       0.00051842       0.01767455
Pt       4.21082079       2.43111832      19.95723449        4       0.00014337      -0.00012319       0.01865063
Pt       7.01803484       2.43111842      19.95723441        4       0.00003500       0.00018258       0.01864887
Pt       2.80721406       4.86223725      19.95723409        4      -0.00017892       0.00022098       0.01851242
Pt       5.61442803       4.86223733      19.95723425        4      -0.00018205      -0.00005870       0.01865430
Pt       8.42164141       4.86223723      19.95723442        4       0.00028359       0.00004492       0.01849768
Pt       1.40360730       0.81037260      22.29206788        3      -0.00000592       0.00000274      -0.04671005
Pt       4.21082126       0.81037254      22.29206791        3       0.00093872       0.00151501      -0.05151141
Pt       7.01803479       0.81037259      22.29206783        3      -0.00017035       0.00150507      -0.05227854
Pt       2.80721452       3.24149125      22.29206775        3       0.00137920      -0.00059217      -0.05228607
Pt       5.61442760       3.24149123      22.29206789        3       0.00000154       0.00000609      -0.05367796
Pt       8.42164156       3.24149116      22.29206803        3      -0.00176890       0.00007244      -0.05152436
Pt       4.21082093       5.67260998      22.29206800        3       0.00082449      -0.00156540      -0.05151243
Pt       7.01803487       5.67261039      22.29206775        3      -0.00122507      -0.00090238      -0.05229255
Pt       9.82524824       5.67261062      22.29206803        3       0.00000658      -0.00000449      -0.05010466
Pt      -0.00000058       1.62074570      24.58417378        2       0.00354579      -0.00124464       0.01123319
Pt       2.80721444       1.62074548      24.58417392        2      -0.00286155      -0.00242571       0.01120817
Pt       5.61442778       1.62074537      24.58417373        2       0.00023331      -0.01391781       0.00256977
Pt       1.40360636       4.05186440      24.58417384        2      -0.00147099       0.00331579       0.03534657
Pt       4.21082088       4.05186399      24.58417380        2      -0.01217229       0.00677243       0.00254901
Pt       7.01803502       4.05186406      24.58417406        2       0.01194280       0.00717458       0.00254899
Pt       2.80721280       6.48298341      24.58417369        2      -0.00210252      -0.00293123       0.03538114
Pt       5.61442796       6.48298324      24.58417387        2      -0.00068638       0.00368522       0.01122926
Pt       8.42164221       6.48298340      24.58417380        2       0.00358420      -0.00036460       0.03536759
Pt       0.00063193       0.00088923      26.91184007        1      -0.01034292      -0.00898241       0.01339583
Pt       2.80612776       0.00010720      26.91184261        1       0.01293856      -0.00450710       0.01344354
Pt       5.61416228       0.00090785      26.91714328        1      -0.00175938      -0.01817833      -0.00539840
Pt       1.40405705       2.43012747      26.91183417        1      -0.00257524       0.01345094       0.01322725
Pt       4.21193856       2.43345914      26.90747777        1      -0.02175335      -0.01884094       0.03890683
Pt       7.01544923       2.43092058      26.90747565        1       0.02719877      -0.00940632       0.03888140
Pt       2.80812948       4.86201761      26.91713749        1      -0.01487479       0.01057681      -0.00549309
Pt       5.61589173       4.86010033      26.90748004        1      -0.00544660       0.02822503       0.03899487
Pt       8.42098802       4.86155760      26.91713725        1       0.01662510       0.00756345      -0.00547261
N        5.61438895       3.24144801      30.80480469        0       0.00005294       0.00002556      -0.02134235
H        6.50640864       3.57271117      30.41269756        0      -0.03277014      -0.01367693       0.01029131
H        5.45531769       2.30329923      30.41267934        0       0.00444591       0.03541627       0.01026416
H        4.88152683       3.84830777      30.41260081        0       0.02827066      -0.02176529       0.01027704
