40
Lattice="8.421641763931781 0.0 0.0 4.2108208819658905 7.293355709136913 0.0 0.0 0.0 46.87624170604845" Properties=species:S:1:pos:R:3:tags:I:1:forces:R:3 charge=0 spin=0 energy=-206.42076946219566 free_energy=-206.42076946219566 stress="0.010463746264576912 8.70775451744521e-09 -1.0308572662154347e-08 8.70775451744521e-09 0.010463795624673367 1.4765984879261396e-08 -1.0308572662154347e-08 1.4765984879261396e-08 -0.00010559021757217124" pbc="T T T"
Pt      -0.00000003       0.00000022      19.95723434        4       0.00023682       0.00045845       0.01761418
Pt       2.80721396      -0.00000018      19.95723452        4      -0.00051959      -0.00002409       0.01760409
Pt       5.61442778      -0.00000004      19.95723454        4      -0.00018087      -0.00071816       0.01853101
Pt       1.40360719       2.43111838      19.95723440        4       0.00028256      -0.00043332       0.01760180
Pt       4.21082079       2.43111832      19.95723449        4       0.00014679      -0.00005515       0.01898655
Pt       7.01803484       2.43111842      19.95723441        4      -0.00002481       0.00015359       0.01898226
Pt       2.80721406       4.86223725      19.95723409        4      -0.00053021       0.00051538       0.01853682
Pt       5.61442803       4.86223733      19.95723425        4      -0.00012570      -0.00009834       0.01899000
Pt       8.42164141       4.86223723      19.95723442        4       0.00071400       0.00020114       0.01852151
Pt       1.40360730       0.81037260      22.29206788        3      -0.00000459       0.00000423      -0.04150784
Pt       4.21082126       0.81037254      22.29206791        3       0.00101726       0.00080828      -0.05336443
Pt       7.01803479       0.81037259      22.29206783        3      -0.00016591       0.00110799      -0.05443925
Pt       2.80721452       3.24149125      22.29206775        3       0.00103305      -0.00039735      -0.05444705
Pt       5.61442760       3.24149123      22.29206789        3       0.00000085       0.00000264      -0.04835843
Pt       8.42164156       3.24149116      22.29206803        3      -0.00119589       0.00048787      -0.05338469
Pt       4.21082093       5.67260998      22.29206800        3       0.00017516      -0.00127878      -0.05336091
Pt       7.01803487       5.67261039      22.29206775        3      -0.00088082      -0.00070524      -0.05444881
Pt       9.82524824       5.67261062      22.29206803        3       0.00000937      -0.00000895      -0.05032730
Pt      -0.00000058       1.62074570      24.58417378        2       0.00772803      -0.00433081       0.04759672
Pt       2.80721444       1.62074548      24.58417392        2      -0.00762262      -0.00450596       0.04758868
Pt       5.61442778       1.62074537      24.58417373        2       0.00191698       0.00779618       0.03287214
Pt       1.40360636       4.05186440      24.58417384        2      -0.00114513      -0.00609046       0.02980848
Pt       4.21082088       4.05186399      24.58417380        2       0.00577235      -0.00554755       0.03285418
Pt       7.01803502       4.05186406      24.58417406        2      -0.00769459      -0.00222193       0.03284293
Pt       2.80721280       6.48298341      24.58417369        2       0.00587164       0.00204752       0.02982653
Pt       5.61442796       6.48298324      24.58417387        2      -0.00009831       0.00882923       0.04757457
Pt       8.42164221       6.48298340      24.58417380        2      -0.00471637       0.00404304       0.02981399
Pt      -0.00506032      -0.00274488      26.91986609        1       0.03756398       0.02040237      -0.01908203
Pt       2.81211998      -0.00301180      26.91987038        1      -0.03647495       0.02229705      -0.01902675
Pt       5.61437848       0.00166746      26.91333217        1      -0.00106536      -0.00792704       0.01381864
Pt       1.40376214       2.43687450      26.91986241        1      -0.00109440      -0.04271627      -0.01919694
Pt       4.20589020       2.42825317      26.91723754        1       0.02020362       0.01358069      -0.01468715
Pt       7.02298231       2.42828265      26.91723369        1      -0.02185065       0.01070940      -0.01470872
Pt       2.80868396       4.86144611      26.91333133        1      -0.00632423       0.00487996       0.01369933
Pt       5.61441106       4.86793902      26.91724138        1       0.00165530      -0.02431244      -0.01465865
Pt       8.42022156       4.86136132      26.91333191        1       0.00738782       0.00304689       0.01373075
N        5.61442828       3.24149172      30.63975138        0       0.00001000       0.00000709      -0.02327017
H        6.43533045       3.71721666      30.24403357        0       0.03266034       0.01894041       0.01696236
H        5.61596789       2.29270553      30.24403923        0       0.00007457      -0.03776635       0.01695320
H        4.79198634       3.71454971      30.24403502        0      -0.03274567       0.01881901       0.01695803
