40
Lattice="8.421641763931781 0.0 0.0 4.2108208819658905 7.293355709136913 0.0 0.0 0.0 46.87624170604845" Properties=species:S:1:pos:R:3:tags:I:1:forces:R:3 charge=0 spin=0 energy=-206.4241836162484 free_energy=-206.4241836162484 stress="0.010422428138554096 3.044885943381814e-08 -3.012113891642798e-09 3.044885943381814e-08 0.010422510094940662 1.0310413500747018e-07 -3.012113891642798e-09 1.0310413500747018e-07 -0.0002364682441111654" pbc="T T T"
Pt      -0.00000003       0.00000022      19.95723434        4      -0.00060887      -0.00000158       0.01770784
Pt       2.80721396      -0.00000018      19.95723452        4       0.00029918      -0.00052655       0.01769677
Pt       5.61442778      -0.00000004      19.95723454        4      -0.00003175      -0.00029721       0.01849842
Pt       1.40360719       2.43111838      19.95723440        4       0.00030589       0.00052674       0.01770250
Pt       4.21082079       2.43111832      19.95723449        4       0.00015817      -0.00006381       0.01861511
Pt       7.01803484       2.43111842      19.95723441        4      -0.00002459       0.00016686       0.01861344
Pt       2.80721406       4.86223725      19.95723409        4      -0.00024144       0.00017505       0.01850970
Pt       5.61442803       4.86223733      19.95723425        4      -0.00013943      -0.00010197       0.01861861
Pt       8.42164141       4.86223723      19.95723442        4       0.00027369       0.00012133       0.01849484
Pt       1.40360730       0.81037260      22.29206788        3      -0.00000906       0.00000323      -0.04672579
Pt       4.21082126       0.81037254      22.29206791        3       0.00093728       0.00154311      -0.05180402
Pt       7.01803479       0.81037259      22.29206783        3      -0.00017701       0.00158315      -0.05207419
Pt       2.80721452       3.24149125      22.29206775        3       0.00144304      -0.00062769      -0.05208302
Pt       5.61442760       3.24149123      22.29206789        3      -0.00000236       0.00000764      -0.05359337
Pt       8.42164156       3.24149116      22.29206803        3      -0.00179833       0.00006144      -0.05181590
Pt       4.21082093       5.67260998      22.29206800        3       0.00084434      -0.00158086      -0.05180637
Pt       7.01803487       5.67261039      22.29206775        3      -0.00129336      -0.00094252      -0.05208835
Pt       9.82524824       5.67261062      22.29206803        3       0.00000320      -0.00000428      -0.04987751
Pt      -0.00000058       1.62074570      24.58417378        2       0.00271970      -0.00267391       0.01074224
Pt       2.80721444       1.62074548      24.58417392        2      -0.00366994      -0.00099657       0.01071129
Pt       5.61442778       1.62074537      24.58417373        2       0.00234531      -0.01433501       0.00178670
Pt       1.40360636       4.05186440      24.58417384        2      -0.00063322       0.00355129       0.03534241
Pt       4.21082088       4.05186399      24.58417380        2      -0.01356212       0.00516224       0.00176009
Pt       7.01803502       4.05186406      24.58417406        2       0.01125845       0.00919818       0.00177382
Pt       2.80721280       6.48298341      24.58417369        2      -0.00271128      -0.00232750       0.03538487
Pt       5.61442796       6.48298324      24.58417387        2       0.00097684       0.00367274       0.01074680
Pt       8.42164221       6.48298340      24.58417380        2       0.00338137      -0.00120236       0.03537563
Pt       0.00137616      -0.00057486      26.91171285        1      -0.01398260      -0.00253573       0.01392986
Pt       2.80703985       0.00147110      26.91171411        1       0.00916358      -0.01087888       0.01397477
Pt       5.61370671       0.00102430      26.91720491        1       0.00336328      -0.01956950      -0.00570393
Pt       1.40243784       2.43022225      26.91170404        1       0.00482825       0.01336497       0.01377418
Pt       4.21289015       2.43206283      26.90730041        1      -0.02785966      -0.01060554       0.03993466
Pt       7.01620109       2.43242725      26.90730285        1       0.02311237      -0.01881835       0.03989539
Pt       2.80848148       4.86236004      26.91719672        1      -0.01865466       0.00684696      -0.00577914
Pt       5.61422834       4.85998295      26.90730840        1       0.00473287       0.02940007       0.04000888
Pt       8.42113187       4.86108942      26.91719761        1       0.01525806       0.01270408      -0.00576230
N        5.61438547       3.24142495      30.80531143        0      -0.00010096       0.00002004      -0.01914855
H        6.34089359       3.85584269      30.41317196        0      -0.02720124      -0.02128516       0.00954193
H        5.78316498       2.30504615      30.41313423        0      -0.00476756       0.03418069       0.00954641
H        4.71900319       3.56344484      30.41327517        0       0.03206471      -0.01291489       0.00957523
