40
Lattice="8.421641763931781 0.0 0.0 4.2108208819658905 7.293355709136913 0.0 0.0 0.0 46.87624170604845" Properties=species:S:1:pos:R:3:tags:I:1:forces:R:3 charge=0 spin=0 energy=-206.4269912334359 free_energy=-206.4269912334359 stress="0.010524725541472435 -7.19934746484796e-07 7.176784322382446e-08 -7.19934746484796e-07 0.0105249909684062 -7.426793899867334e-07 7.176784322382446e-08 -7.426793899867334e-07 -2.2932819774723612e-05" pbc="T T T"
Pt      -0.00000003       0.00000022      19.95723434        4      -0.00030630       0.00014179       0.01805247
Pt       2.80721396      -0.00000018      19.95723452        4       0.00002575      -0.00033521       0.01804030
Pt       5.61442778      -0.00000004      19.95723454        4      -0.00015010      -0.00011612       0.01847020
Pt       1.40360719       2.43111838      19.95723440        4       0.00028273       0.00019263       0.01804323
Pt       4.21082079       2.43111832      19.95723449        4       0.00014193      -0.00012267       0.01867997
Pt       7.01803484       2.43111842      19.95723441        4       0.00003765       0.00017681       0.01867412
Pt       2.80721406       4.86223725      19.95723409        4      -0.00002230       0.00018834       0.01848243
Pt       5.61442803       4.86223733      19.95723425        4      -0.00017862      -0.00006352       0.01869666
Pt       8.42164141       4.86223723      19.95723442        4       0.00018130      -0.00007845       0.01846590
Pt       1.40360730       0.81037260      22.29206788        3       0.00000810      -0.00002777      -0.04625180
Pt       4.21082126       0.81037254      22.29206791        3       0.00113100       0.00029374      -0.05191866
Pt       7.01803479       0.81037259      22.29206783        3      -0.00014683       0.00072522      -0.05268098
Pt       2.80721452       3.24149125      22.29206775        3       0.00071531      -0.00022468      -0.05268443
Pt       5.61442760       3.24149123      22.29206789        3       0.00001146      -0.00001181      -0.05137353
Pt       8.42164156       3.24149116      22.29206803        3      -0.00083078       0.00083205      -0.05193099
Pt       4.21082093       5.67260998      22.29206800        3      -0.00030845      -0.00112288      -0.05190060
Pt       7.01803487       5.67261039      22.29206775        3      -0.00054995      -0.00049259      -0.05271626
Pt       9.82524824       5.67261062      22.29206803        3       0.00000821      -0.00001396      -0.05439228
Pt      -0.00000058       1.62074570      24.58417378        2       0.00854230      -0.00543641       0.05307456
Pt       2.80721444       1.62074548      24.58417392        2      -0.00903298      -0.00465694       0.05294149
Pt       5.61442778       1.62074537      24.58417373        2       0.00053564      -0.00416272       0.02974189
Pt       1.40360636       4.05186440      24.58417384        2      -0.00136031      -0.00989166       0.05030971
Pt       4.21082088       4.05186399      24.58417380        2      -0.00382970       0.00173439       0.02976306
Pt       7.01803502       4.05186406      24.58417406        2       0.00328187       0.00258147       0.02980686
Pt       2.80721280       6.48298341      24.58417369        2       0.00927392       0.00373884       0.05034252
Pt       5.61442796       6.48298324      24.58417387        2       0.00037802       0.00998312       0.05315545
Pt       8.42164221       6.48298340      24.58417380        2      -0.00786829       0.00613836       0.05029572
Pt       0.00124350      -0.00065973      26.92348309        1      -0.00337269       0.00202695      -0.03367766
Pt       2.80714351       0.00140998      26.92343061        1      -0.00017184      -0.00414828      -0.03348133
Pt       5.61439068       0.00037688      26.91621208        1      -0.00158912      -0.00478983      -0.00393754
Pt       1.40240215       2.43037859      26.92347009        1       0.00358274       0.00186935      -0.03372883
Pt       4.21085126       2.43229222      26.91490066        1      -0.01153405      -0.00867196       0.00615838
Pt       7.01701581       2.43058697      26.91493821        1       0.01317624      -0.00568055       0.00599063
Pt       2.80752972       4.86211311      26.91620698        1      -0.00334169       0.00369191      -0.00392730
Pt       5.61538057       4.86159858      26.91501292        1      -0.00165913       0.01437297       0.00575039
Pt       8.42132173       4.86203039      26.91618574        1       0.00496463       0.00106510      -0.00387088
N        5.61447488       3.23876851      31.01223627        0      -0.00007571       0.00120620       0.03329677
H        6.07943131       4.07038667      30.62651967        0       0.00598372       0.01264072      -0.01226114
H        6.09905390       2.42565824      30.61143647        0       0.00693599      -0.00977109      -0.01291152
H        4.66480929       3.23137120      30.61897088        0      -0.01286964      -0.00378058      -0.01258743
