40
Lattice="8.421641763931781 0.0 0.0 4.2108208819658905 7.293355709136913 0.0 0.0 0.0 46.87624170604845" Properties=species:S:1:pos:R:3:tags:I:1:forces:R:3 charge=0 spin=0 energy=-206.42601276358727 free_energy=-206.42601276358727 stress="0.010491261258721352 -6.455859420384513e-07 1.0004783668193795e-08 -6.455859420384513e-07 0.010490981861948967 5.217400484980317e-07 1.0004783668193795e-08 5.217400484980317e-07 -4.35807196481619e-05" pbc="T T T"
Pt      -0.00000003       0.00000022      19.95723434        4      -0.00012441       0.00027989       0.01784287
Pt       2.80721396      -0.00000018      19.95723452        4      -0.00019274      -0.00026032       0.01782578
Pt       5.61442778      -0.00000004      19.95723454        4      -0.00017708      -0.00025950       0.01852435
Pt       1.40360719       2.43111838      19.95723440        4       0.00031783      -0.00003096       0.01781986
Pt       4.21082079       2.43111832      19.95723449        4       0.00030213       0.00015510       0.01881008
Pt       7.01803484       2.43111842      19.95723441        4      -0.00028374       0.00018360       0.01880676
Pt       2.80721406       4.86223725      19.95723409        4      -0.00012928       0.00028682       0.01852374
Pt       5.61442803       4.86223733      19.95723425        4      -0.00002382      -0.00033552       0.01880177
Pt       8.42164141       4.86223723      19.95723442        4       0.00031589      -0.00003223       0.01851203
Pt       1.40360730       0.81037260      22.29206788        3       0.00002241       0.00003422      -0.04714122
Pt       4.21082126       0.81037254      22.29206791        3       0.00021984       0.00019000      -0.05316039
Pt       7.01803479       0.81037259      22.29206783        3       0.00039784       0.00070435      -0.05298512
Pt       2.80721452       3.24149125      22.29206775        3       0.00038845      -0.00072295      -0.05300990
Pt       5.61442760       3.24149123      22.29206789        3       0.00000759       0.00000613      -0.04731971
Pt       8.42164156       3.24149116      22.29206803        3      -0.00025348       0.00007358      -0.05318622
Pt       4.21082093       5.67260998      22.29206800        3       0.00006583      -0.00033443      -0.05312617
Pt       7.01803487       5.67261039      22.29206775        3      -0.00082721      -0.00001679      -0.05300966
Pt       9.82524824       5.67261062      22.29206803        3       0.00000923      -0.00002867      -0.05176055
Pt      -0.00000058       1.62074570      24.58417378        2       0.00248999      -0.00116339       0.05186317
Pt       2.80721444       1.62074548      24.58417392        2      -0.00234874      -0.00150412       0.05181809
Pt       5.61442778       1.62074537      24.58417373        2       0.00131796       0.00723418       0.03815553
Pt       1.40360636       4.05186440      24.58417384        2      -0.00083945      -0.00474788       0.03806872
Pt       4.21082088       4.05186399      24.58417380        2       0.00543499      -0.00475463       0.03783905
Pt       7.01803502       4.05186406      24.58417406        2      -0.00674945      -0.00259453       0.03790160
Pt       2.80721280       6.48298341      24.58417369        2       0.00454447       0.00174065       0.03811779
Pt       5.61442796       6.48298324      24.58417387        2      -0.00022188       0.00304464       0.05155745
Pt       8.42164221       6.48298340      24.58417380        2      -0.00369540       0.00315639       0.03809486
Pt      -0.00285135      -0.00099842      26.91942156        1       0.02116611       0.01133380      -0.01996284
Pt       2.80956855      -0.00183438      26.91941372        1      -0.02064465       0.01220072      -0.01993744
Pt       5.61417706       0.00301340      26.91408009        1      -0.00015383      -0.01620344       0.00673077
Pt       1.40406816       2.43414766      26.91941572        1      -0.00053203      -0.02401416      -0.02013082
Pt       4.20989085       2.43035254      26.92031991        1      -0.00168421       0.00190864      -0.01808763
Pt       7.01918900       2.43076202      26.92037010        1      -0.00075801      -0.00238936      -0.01820385
Pt       2.80988828       4.86100686      26.91404417        1      -0.01400092       0.00826366       0.00674633
Pt       5.61418956       4.86353264      26.92017090        1       0.00248217       0.00044578      -0.01762635
Pt       8.41918724       4.86057290      26.91404942        1       0.01414045       0.00805791       0.00674067
N        5.61441505       3.24507614      30.84428182        0      -0.00007239      -0.00136183      -0.02738890
H        6.56142779       3.24373362      30.44412400        0       0.04644525       0.00054309       0.01227179
H        5.14431323       2.41807899      30.45439442        0      -0.02533757      -0.03981503       0.01272318
H        5.13752829       4.05819718      30.43389859        0      -0.02101803       0.04072673       0.01194040
