40
Lattice="8.421641763931781 0.0 0.0 4.2108208819658905 7.293355709136913 0.0 0.0 0.0 46.87624170604845" Properties=species:S:1:pos:R:3:tags:I:1:forces:R:3 charge=0 spin=0 energy=-206.42471004447106 free_energy=-206.42471004447106 stress="0.010460719466209412 1.5376325990246187e-08 -3.490811417705686e-09 1.5376325990246187e-08 0.010460712015628815 -1.3941151344454283e-08 -3.490811417705686e-09 -1.3941151344454283e-08 -0.00015590892871841788" pbc="T T T"
Pt      -0.00000003       0.00000022      19.95723434        4       0.00003159       0.00026762       0.01772198
Pt       2.80721396      -0.00000018      19.95723452        4      -0.00025164      -0.00010735       0.01771155
Pt       5.61442778      -0.00000004      19.95723454        4      -0.00011302      -0.00060224       0.01846498
Pt       1.40360719       2.43111838      19.95723440        4       0.00022092      -0.00016023       0.01771100
Pt       4.21082079       2.43111832      19.95723449        4       0.00011328      -0.00009275       0.01888383
Pt       7.01803484       2.43111842      19.95723441        4       0.00002425       0.00014155       0.01888057
Pt       2.80721406       4.86223725      19.95723409        4      -0.00046370       0.00039903       0.01847200
Pt       5.61442803       4.86223733      19.95723425        4      -0.00013962      -0.00005016       0.01888746
Pt       8.42164141       4.86223723      19.95723442        4       0.00058080       0.00020092       0.01845667
Pt       1.40360730       0.81037260      22.29206788        3      -0.00000179       0.00000251      -0.04390799
Pt       4.21082126       0.81037254      22.29206791        3       0.00086923       0.00099148      -0.05256488
Pt       7.01803479       0.81037259      22.29206783        3       0.00010084       0.00117820      -0.05379780
Pt       2.80721452       3.24149125      22.29206775        3       0.00096591      -0.00066904      -0.05380810
Pt       5.61442760       3.24149123      22.29206789        3       0.00000272       0.00000147      -0.05007190
Pt       8.42164156       3.24149116      22.29206803        3      -0.00128030       0.00026254      -0.05258565
Pt       4.21082093       5.67260998      22.29206800        3       0.00041201      -0.00124730      -0.05256671
Pt       7.01803487       5.67261039      22.29206775        3      -0.00107458      -0.00051552      -0.05380877
Pt       9.82524824       5.67261062      22.29206803        3       0.00001065      -0.00001263      -0.05001408
Pt      -0.00000058       1.62074570      24.58417378        2       0.00518192      -0.00348297       0.03447097
Pt       2.80721444       1.62074548      24.58417392        2      -0.00561601      -0.00274267       0.03446290
Pt       5.61442778       1.62074537      24.58417373        2       0.00142321       0.00309587       0.02689624
Pt       1.40360636       4.05186440      24.58417384        2      -0.00076544      -0.00427451       0.02103209
Pt       4.21082088       4.05186399      24.58417380        2       0.00195302      -0.00277292       0.02686078
Pt       7.01803502       4.05186406      24.58417406        2      -0.00338697      -0.00030467       0.02687082
Pt       2.80721280       6.48298341      24.58417369        2       0.00410424       0.00148989       0.02106449
Pt       5.61442796       6.48298324      24.58417387        2       0.00042956       0.00621799       0.03446262
Pt       8.42164221       6.48298340      24.58417380        2      -0.00334067       0.00281000       0.02106752
Pt      -0.00380796      -0.00308568      26.91601370        1       0.02973973       0.01919587      -0.00300228
Pt       2.81179085      -0.00174244      26.91601820        1      -0.03150739       0.01614328      -0.00295595
Pt       5.61370307      -0.00067258      26.91307794        1       0.00179570       0.00949987       0.01609395
Pt       1.40282946       2.43596336      26.91599943        1       0.00177713      -0.03537424      -0.00311369
Pt       4.20716678       2.42977145      26.91477218        1       0.01472219       0.00890985      -0.00094090
Pt       7.02103234       2.42863872      26.91477140        1      -0.01506681       0.00829691      -0.00096350
Pt       2.80698272       4.86320629      26.91306503        1       0.00729062      -0.00630091       0.01600901
Pt       5.61507750       4.86608252      26.91477380        1       0.00035620      -0.01722699      -0.00089300
Pt       8.42258959       4.86195572      26.91306915        1      -0.00909803      -0.00317177       0.01603322
N        5.61445315       3.24153285      30.74647530        0       0.00001947       0.00003024      -0.04125370
H        5.96832659       2.35911303      30.35241757        0      -0.00661459       0.02058641       0.01855823
H        4.67338413       3.37612358      30.35220564        0       0.02116317      -0.00454734       0.01857458
H        6.20161551       3.98907136      30.35200967        0      -0.01456771      -0.01606531       0.01860145
