40
Lattice="8.421641763931781 0.0 0.0 4.2108208819658905 7.293355709136913 0.0 0.0 0.0 46.87624170604845" Properties=species:S:1:pos:R:3:tags:I:1:forces:R:3 charge=0 spin=0 energy=-206.42434383353356 free_energy=-206.42434383353356 stress="0.010479135438799858 5.34628297188533e-09 -1.4732845166065545e-08 5.34628297188533e-09 0.010479121468961239 -1.7328860124621315e-08 -1.4732845166065545e-08 -1.7328860124621315e-08 -6.819940608693287e-05" pbc="T T T"
Pt      -0.00000003       0.00000022      19.95723434        4      -0.00016058       0.00020400       0.01792281
Pt       2.80721396      -0.00000018      19.95723452        4      -0.00010185      -0.00024294       0.01791248
Pt       5.61442778      -0.00000004      19.95723454        4      -0.00017493      -0.00049981       0.01845336
Pt       1.40360719       2.43111838      19.95723440        4       0.00026253       0.00003915       0.01790924
Pt       4.21082079       2.43111832      19.95723449        4       0.00033142       0.00010595       0.01877238
Pt       7.01803484       2.43111842      19.95723441        4      -0.00025698       0.00023143       0.01876969
Pt       2.80721406       4.86223725      19.95723409        4      -0.00034233       0.00040165       0.01845786
Pt       5.61442803       4.86223733      19.95723425        4      -0.00007717      -0.00033788       0.01877677
Pt       8.42164141       4.86223723      19.95723442        4       0.00052146       0.00009682       0.01844327
Pt       1.40360730       0.81037260      22.29206788        3      -0.00000175       0.00000348      -0.04616326
Pt       4.21082126       0.81037254      22.29206791        3       0.00055446       0.00065595      -0.05288070
Pt       7.01803479       0.81037259      22.29206783        3       0.00013502       0.00104750      -0.05338398
Pt       2.80721452       3.24149125      22.29206775        3       0.00083490      -0.00063324      -0.05339973
Pt       5.61442760       3.24149123      22.29206789        3       0.00000237       0.00000251      -0.04872083
Pt       8.42164156       3.24149116      22.29206803        3      -0.00083462       0.00016030      -0.05290914
Pt       4.21082093       5.67260998      22.29206800        3       0.00028011      -0.00080655      -0.05288546
Pt       7.01803487       5.67261039      22.29206775        3      -0.00097806      -0.00041644      -0.05339838
Pt       9.82524824       5.67261062      22.29206803        3       0.00001007      -0.00001345      -0.05050243
Pt      -0.00000058       1.62074570      24.58417378        2       0.00493393      -0.00293549       0.04805323
Pt       2.80721444       1.62074548      24.58417392        2      -0.00499837      -0.00282204       0.04804798
Pt       5.61442778       1.62074537      24.58417373        2       0.00146632       0.00502660       0.03288693
Pt       1.40360636       4.05186440      24.58417384        2      -0.00107339      -0.00373201       0.03621595
Pt       4.21082088       4.05186399      24.58417380        2       0.00361194      -0.00378025       0.03284766
Pt       7.01803502       4.05186406      24.58417406        2      -0.00509313      -0.00122979       0.03286332
Pt       2.80721280       6.48298341      24.58417369        2       0.00379199       0.00094915       0.03625640
Pt       5.61442796       6.48298324      24.58417387        2       0.00006593       0.00571546       0.04806523
Pt       8.42164221       6.48298340      24.58417380        2      -0.00271357       0.00281391       0.03627190
Pt      -0.00338853      -0.00214414      26.91893237        1       0.02563724       0.01524688      -0.01869461
Pt       2.81075838      -0.00186148      26.91893457        1      -0.02600534       0.01456165      -0.01865953
Pt       5.61411877       0.00283671      26.91427706        1       0.00021967      -0.01690154       0.00762116
Pt       1.40344358       2.43512708      26.91890826        1       0.00038580      -0.02984072      -0.01877813
Pt       4.20927583       2.43041841      26.91806133        1       0.00068501       0.00195789      -0.00923736
Pt       7.01941864       2.43013488      26.91806176        1      -0.00205328      -0.00038852      -0.00926045
Pt       2.80982451       4.86109288      26.91426076        1      -0.01480358       0.00824126       0.00755553
Pt       5.61458347       4.86392480      26.91807101        1       0.00139776      -0.00158956      -0.00921225
Pt       8.41934133       4.86054931      26.91426390        1       0.01453068       0.00870716       0.00755611
N        5.61442833       3.24149020      30.85924499        0       0.00001909       0.00008113      -0.02280401
H        6.42900281       3.72497023      30.45958038        0       0.03423400       0.02055361       0.01042313
H        5.62584654       2.29430971      30.45958177        0       0.00068675      -0.04000328       0.01038761
H        4.78843565       3.70519349      30.45958043        0      -0.03492951       0.01937011       0.01042037
