40
Lattice="8.421641763931781 0.0 0.0 4.2108208819658905 7.293355709136913 0.0 0.0 0.0 46.87624170604845" Properties=species:S:1:pos:R:3:tags:I:1:forces:R:3 charge=0 spin=0 energy=-206.42484546622399 free_energy=-206.42484546622399 stress="0.010533453896641731 2.0449084203733037e-08 -6.69486466264857e-10 2.0449084203733037e-08 0.01053333468735218 -1.683690555864814e-07 -6.69486466264857e-10 -1.683690555864814e-07 -8.067324415605981e-06" pbc="T T T"
Pt      -0.00000003       0.00000022      19.95723434        4      -0.00042465       0.00010071       0.01808551
Pt       2.80721396      -0.00000018      19.95723452        4       0.00011842      -0.00041983       0.01807393
Pt       5.61442778      -0.00000004      19.95723454        4      -0.00015097      -0.00023323       0.01844759
Pt       1.40360719       2.43111838      19.95723440        4       0.00030503       0.00031738       0.01807226
Pt       4.21082079       2.43111832      19.95723449        4       0.00003911      -0.00015861       0.01870767
Pt       7.01803484       2.43111842      19.95723441        4       0.00012013       0.00010899       0.01870521
Pt       2.80721406       4.86223725      19.95723409        4      -0.00012359       0.00024802       0.01845718
Pt       5.61442803       4.86223733      19.95723425        4      -0.00015860       0.00004515       0.01871719
Pt       8.42164141       4.86223723      19.95723442        4       0.00028272      -0.00001799       0.01844234
Pt       1.40360730       0.81037260      22.29206788        3       0.00000107      -0.00000842      -0.04579896
Pt       4.21082126       0.81037254      22.29206791        3       0.00125979       0.00065643      -0.05199619
Pt       7.01803479       0.81037259      22.29206783        3      -0.00046894       0.00091463      -0.05235161
Pt       2.80721452       3.24149125      22.29206775        3       0.00103547      -0.00005936      -0.05235747
Pt       5.61442760       3.24149123      22.29206789        3       0.00000980      -0.00000622      -0.05319210
Pt       8.42164156       3.24149116      22.29206803        3      -0.00119535       0.00075829      -0.05200611
Pt       4.21082093       5.67260998      22.29206800        3      -0.00005572      -0.00143055      -0.05198236
Pt       7.01803487       5.67261039      22.29206775        3      -0.00056506      -0.00088302      -0.05238101
Pt       9.82524824       5.67261062      22.29206803        3       0.00000879      -0.00001689      -0.05379643
Pt      -0.00000058       1.62074570      24.58417378        2       0.01028078      -0.00589736       0.05388803
Pt       2.80721444       1.62074548      24.58417392        2      -0.01026776      -0.00591469       0.05379020
Pt       5.61442778       1.62074537      24.58417373        2       0.00100287      -0.00701221       0.02930724
Pt       1.40360636       4.05186440      24.58417384        2      -0.00133456      -0.00939696       0.05432184
Pt       4.21082088       4.05186399      24.58417380        2      -0.00661235       0.00267582       0.02921267
Pt       7.01803502       4.05186406      24.58417406        2       0.00558862       0.00431594       0.02924898
Pt       2.80721280       6.48298341      24.58417369        2       0.00881393       0.00354533       0.05437646
Pt       5.61442796       6.48298324      24.58417387        2      -0.00009510       0.01186390       0.05378731
Pt       8.42164221       6.48298340      24.58417380        2      -0.00742113       0.00586524       0.05431800
Pt       0.00080115       0.00000171      26.92407615        1      -0.00203862       0.00032192      -0.03623266
Pt       2.80681655       0.00071941      26.92401691        1       0.00077873      -0.00190311      -0.03599541
Pt       5.61424884      -0.00017815      26.91766356        1      -0.00040037      -0.00265913      -0.00899501
Pt       1.40319666       2.43044204      26.92405893        1       0.00126181       0.00160365      -0.03626508
Pt       4.21128144       2.43214672      26.91386264        1      -0.01440890      -0.00934512       0.01016997
Pt       7.01695237       2.43101144      26.91389470        1       0.01520225      -0.00773264       0.01004789
Pt       2.80711380       4.86252135      26.91764690        1      -0.00209959       0.00161034      -0.00906223
Pt       5.61505564       4.86135084      26.91385129        1      -0.00083665       0.01711280       0.01019596
Pt       8.42189324       4.86218734      26.91763269        1       0.00254531       0.00103530      -0.00899158
N        5.61442801       3.24149315      31.02608504        0       0.00018645      -0.00000092       0.02648339
H        4.78535659       3.70480053      30.63262059        0      -0.00691699       0.00374253      -0.01119541
H        6.43019999       3.72783467      30.63260469        0       0.00653242       0.00402974      -0.01110809
H        5.62772558       2.29184301      30.63261289        0       0.00020155      -0.00777627      -0.01114899
