40
Lattice="8.421641763931781 0.0 0.0 4.2108208819658905 7.293355709136913 0.0 0.0 0.0 46.87624170604845" Properties=species:S:1:pos:R:3:tags:I:1:forces:R:3 charge=0 spin=0 energy=-206.42468143424156 free_energy=-206.42468143424156 stress="0.01046048104763031 -7.813918045940227e-08 1.3646570096170763e-08 -7.813918045940227e-08 0.010460404679179192 -1.461869403307503e-09 1.3646570096170763e-08 -1.461869403307503e-09 -0.00015499538858421147" pbc="T T T"
Pt      -0.00000003       0.00000022      19.95723434        4      -0.00000467       0.00034658       0.01769927
Pt       2.80721396      -0.00000018      19.95723452        4      -0.00030319      -0.00017863       0.01768884
Pt       5.61442778      -0.00000004      19.95723454        4      -0.00015455      -0.00055385       0.01844815
Pt       1.40360719       2.43111838      19.95723440        4       0.00030731      -0.00016937       0.01768820
Pt       4.21082079       2.43111832      19.95723449        4       0.00005892      -0.00008848       0.01892026
Pt       7.01803484       2.43111842      19.95723441        4       0.00004699       0.00009226       0.01891685
Pt       2.80721406       4.86223725      19.95723409        4      -0.00040110       0.00040984       0.01845521
Pt       5.61442803       4.86223733      19.95723425        4      -0.00010983      -0.00000605       0.01892414
Pt       8.42164141       4.86223723      19.95723442        4       0.00055888       0.00014059       0.01844045
Pt       1.40360730       0.81037260      22.29206788        3      -0.00000344       0.00000205      -0.04380940
Pt       4.21082126       0.81037254      22.29206791        3       0.00070002       0.00079905      -0.05300260
Pt       7.01803479       0.81037259      22.29206783        3      -0.00006971       0.00122223      -0.05327653
Pt       2.80721452       3.24149125      22.29206775        3       0.00108699      -0.00054618      -0.05328450
Pt       5.61442760       3.24149123      22.29206789        3       0.00000080       0.00000029      -0.05023342
Pt       8.42164156       3.24149116      22.29206803        3      -0.00103374       0.00020926      -0.05302226
Pt       4.21082093       5.67260998      22.29206800        3       0.00032942      -0.00100883      -0.05299973
Pt       7.01803487       5.67261039      22.29206775        3      -0.00103223      -0.00068584      -0.05328805
Pt       9.82524824       5.67261062      22.29206803        3       0.00000876      -0.00001453      -0.05017947
Pt      -0.00000058       1.62074570      24.58417378        2       0.00576601      -0.00276910       0.03449986
Pt       2.80721444       1.62074548      24.58417392        2      -0.00528414      -0.00359154       0.03448446
Pt       5.61442778       1.62074537      24.58417373        2       0.00155061       0.00358117       0.02715154
Pt       1.40360636       4.05186440      24.58417384        2      -0.00143102      -0.00426607       0.02119805
Pt       4.21082088       4.05186399      24.58417380        2       0.00230615      -0.00311361       0.02712327
Pt       7.01803502       4.05186406      24.58417406        2      -0.00384892      -0.00044283       0.02711499
Pt       2.80721280       6.48298341      24.58417369        2       0.00444270       0.00090932       0.02123643
Pt       5.61442796       6.48298324      24.58417387        2      -0.00047228       0.00637912       0.03447225
Pt       8.42164221       6.48298340      24.58417380        2      -0.00299252       0.00339400       0.02122119
Pt      -0.00451959      -0.00170659      26.91604081        1       0.03217020       0.01566012      -0.00319664
Pt       2.81097162      -0.00304531      26.91604189        1      -0.02967010       0.02000622      -0.00313873
Pt       5.61468272      -0.00063630      26.91305215        1      -0.00267878       0.00988293       0.01618825
Pt       1.40438711       2.43590680      26.91602667        1      -0.00252208      -0.03571165      -0.00330406
Pt       4.20752008       2.42886900      26.91485338        1       0.01510214       0.01094285      -0.00133030
Pt       7.02165089       2.42939828      26.91485420        1      -0.01701320       0.00761500      -0.00137184
Pt       2.80653003       4.86235490      26.91304016        1       0.00987841      -0.00260396       0.01610642
Pt       5.61412850       4.86624378      26.91484772        1       0.00191464      -0.01857952      -0.00127328
Pt       8.42208468       4.86278874      26.91304133        1      -0.00719746      -0.00726116       0.01611467
N        5.61437827       3.24158354      30.74535943        0      -0.00002632      -0.00001268      -0.04116448
H        5.26800574       2.35595862      30.35182996        0       0.00631510       0.02068217       0.01856086
H        5.02082791       3.98403082      30.35082637        0       0.01495632      -0.01608028       0.01863027
H        6.55437280       3.38401925      30.35127789        0      -0.02125058      -0.00459075       0.01859167
