40
Lattice="8.421641763931781 0.0 0.0 4.2108208819658905 7.293355709136913 0.0 0.0 0.0 46.87624170604845" Properties=species:S:1:pos:R:3:tags:I:1:forces:R:3 charge=0 spin=0 energy=-206.4290607067025 free_energy=-206.4290607067025 stress="0.010530635714530945 -1.6612884401467909e-09 -5.140477821186096e-09 -1.6612884401467909e-09 0.01053057610988617 -2.5253148905335365e-08 -5.140477821186096e-09 -2.5253148905335365e-08 -4.5800901716575027e-05" pbc="T T T"
Pt      -0.00000003       0.00000022      19.95723434        4      -0.00021733       0.00025305       0.01794934
Pt       2.80721396      -0.00000018      19.95723452        4      -0.00011775      -0.00031724       0.01793801
Pt       5.61442778      -0.00000004      19.95723454        4      -0.00015675      -0.00003134       0.01848307
Pt       1.40360719       2.43111838      19.95723440        4       0.00033365       0.00006190       0.01793683
Pt       4.21082079       2.43111832      19.95723449        4       0.00014358      -0.00006415       0.01870610
Pt       7.01803484       2.43111842      19.95723441        4      -0.00001373       0.00015288       0.01870234
Pt       2.80721406       4.86223725      19.95723409        4       0.00005392       0.00015121       0.01849183
Pt       5.61442803       4.86223733      19.95723425        4      -0.00013047      -0.00009344       0.01871218
Pt       8.42164141       4.86223723      19.95723442        4       0.00010917      -0.00012459       0.01847592
Pt       1.40360730       0.81037260      22.29206788        3      -0.00000111      -0.00000758      -0.04614705
Pt       4.21082126       0.81037254      22.29206791        3       0.00094460       0.00002922      -0.05223844
Pt       7.01803479       0.81037259      22.29206783        3      -0.00003868       0.00047110      -0.05243253
Pt       2.80721452       3.24149125      22.29206775        3       0.00043124      -0.00020407      -0.05243704
Pt       5.61442760       3.24149123      22.29206789        3       0.00000640      -0.00000102      -0.05015211
Pt       8.42164156       3.24149116      22.29206803        3      -0.00049578       0.00080439      -0.05224918
Pt       4.21082093       5.67260998      22.29206800        3      -0.00044719      -0.00083937      -0.05223348
Pt       7.01803487       5.67261039      22.29206775        3      -0.00039891      -0.00028408      -0.05245536
Pt       9.82524824       5.67261062      22.29206803        3       0.00000620      -0.00001319      -0.05499763
Pt      -0.00000058       1.62074570      24.58417378        2       0.00772913      -0.00450061       0.04881280
Pt       2.80721444       1.62074548      24.58417392        2      -0.00779397      -0.00438159       0.04873706
Pt       5.61442778       1.62074537      24.58417373        2       0.00053803      -0.00194487       0.02940987
Pt       1.40360636       4.05186440      24.58417384        2      -0.00107993      -0.00988497       0.04571541
Pt       4.21082088       4.05186399      24.58417380        2      -0.00200430       0.00054374       0.02930724
Pt       7.01803502       4.05186406      24.58417406        2       0.00145743       0.00140633       0.02934114
Pt       2.80721280       6.48298341      24.58417369        2       0.00910181       0.00402640       0.04576422
Pt       5.61442796       6.48298324      24.58417387        2       0.00000897       0.00896993       0.04871340
Pt       8.42164221       6.48298340      24.58417380        2      -0.00798236       0.00589923       0.04572530
Pt       0.00099300       0.00004868      26.92234371        1      -0.00265040      -0.00009985      -0.02939127
Pt       2.80668615       0.00087111      26.92230454        1       0.00142507      -0.00226302      -0.02923616
Pt       5.61427995       0.00052380      26.91508565        1      -0.00094246      -0.00363709       0.00015640
Pt       1.40313300       2.43025656      26.92233893        1       0.00123204       0.00234433      -0.02936637
Pt       4.21029841       2.43144615      26.91511330        1      -0.00546256      -0.00340719       0.00512751
Pt       7.01804572       2.43052587      26.91513701        1       0.00559929      -0.00299972       0.00503565
Pt       2.80769945       4.86214526      26.91506147        1      -0.00263131       0.00257666       0.00023255
Pt       5.61493984       4.86255450      26.91509209        1      -0.00017339       0.00639446       0.00518510
Pt       8.42128055       4.86187500      26.91505585        1       0.00361581       0.00101723       0.00024436
N        5.61442829       3.24149185      30.99558043        0       0.00002331      -0.00007298      -0.00909438
H        5.63288291       4.19219914      30.60203659        0      -0.00072060      -0.03164898       0.00315786
H        6.42853608       2.75015734      30.60202570        0      -0.02711201       0.01648560       0.00318966
H        4.78186440       2.78212251      30.60203158        0       0.02781137       0.01523355       0.00317974
