40
Lattice="8.421641763931781 0.0 0.0 4.2108208819658905 7.293355709136913 0.0 0.0 0.0 46.87624170604845" Properties=species:S:1:pos:R:3:tags:I:1:forces:R:3 charge=0 spin=0 energy=-206.42405582389 free_energy=-206.42405582389 stress="0.010434704832732677 1.5131453423578023e-08 -1.20631851174835e-08 1.5131453423578023e-08 0.01043472345918417 -5.729644314556026e-09 -1.20631851174835e-08 -5.729644314556026e-09 -0.0002031376352533698" pbc="T T T"
Pt      -0.00000003       0.00000022      19.95723434        4      -0.00010305       0.00023231       0.01773852
Pt       2.80721396      -0.00000018      19.95723452        4      -0.00015397      -0.00020639       0.01772817
Pt       5.61442778      -0.00000004      19.95723454        4      -0.00011610      -0.00059112       0.01842641
Pt       1.40360719       2.43111838      19.95723440        4       0.00025769      -0.00002623       0.01773017
Pt       4.21082079       2.43111832      19.95723449        4       0.00011182      -0.00010902       0.01883106
Pt       7.01803484       2.43111842      19.95723441        4       0.00003913       0.00014883       0.01882798
Pt       2.80721406       4.86223725      19.95723409        4      -0.00045277       0.00039627       0.01843623
Pt       5.61442803       4.86223733      19.95723425        4      -0.00015323      -0.00003968       0.01883587
Pt       8.42164141       4.86223723      19.95723442        4       0.00057285       0.00019405       0.01842168
Pt       1.40360730       0.81037260      22.29206788        3      -0.00000339       0.00000138      -0.04357008
Pt       4.21082126       0.81037254      22.29206791        3       0.00104721       0.00126203      -0.05255932
Pt       7.01803479       0.81037259      22.29206783        3      -0.00028734       0.00143985      -0.05327361
Pt       2.80721452       3.24149125      22.29206775        3       0.00138605      -0.00046059      -0.05328248
Pt       5.61442760       3.24149123      22.29206789        3       0.00000334       0.00000152      -0.05179521
Pt       8.42164156       3.24149116      22.29206803        3      -0.00160240       0.00028255      -0.05257973
Pt       4.21082093       5.67260998      22.29206800        3       0.00055494      -0.00153492      -0.05255994
Pt       7.01803487       5.67261039      22.29206775        3      -0.00110723      -0.00098171      -0.05328240
Pt       9.82524824       5.67261062      22.29206803        3       0.00001050      -0.00000966      -0.04969823
Pt      -0.00000058       1.62074570      24.58417378        2       0.00645672      -0.00361645       0.02218808
Pt       2.80721444       1.62074548      24.58417392        2      -0.00635681      -0.00379360       0.02218548
Pt       5.61442778       1.62074537      24.58417373        2       0.00149876      -0.00140004       0.01834219
Pt       1.40360636       4.05186440      24.58417384        2      -0.00121785      -0.00155802       0.02241532
Pt       4.21082088       4.05186399      24.58417380        2      -0.00195836      -0.00059874       0.01831377
Pt       7.01803502       4.05186406      24.58417406        2       0.00045320       0.00201178       0.01831454
Pt       2.80721280       6.48298341      24.58417369        2       0.00198520      -0.00026689       0.02245664
Pt       5.61442796       6.48298324      24.58417387        2      -0.00009849       0.00737837       0.02219949
Pt       8.42164221       6.48298340      24.58417380        2      -0.00077114       0.00184497       0.02245717
Pt      -0.00282990      -0.00169870      26.91417604        1       0.01858352       0.01029489       0.00561964
Pt       2.81009520      -0.00160250      26.91418406        1      -0.01819980       0.01095100       0.00564292
Pt       5.61413013      -0.00029792      26.91388128        1      -0.00005718       0.00261385       0.01206127
Pt       1.40355061       2.43442047      26.91416119        1      -0.00037149      -0.02125994       0.00551678
Pt       4.20734280       2.42954414      26.91129645        1       0.01505473       0.00904454       0.01537320
Pt       7.02113773       2.42889949      26.91129047        1      -0.01535288       0.00851795       0.01537029
Pt       2.80710256       4.86264308      26.91387057        1       0.00223601      -0.00124889       0.01198317
Pt       5.61479713       4.86603283      26.91130339        1       0.00030589      -0.01758038       0.01542188
Pt       8.42204551       4.86213087      26.91387370        1      -0.00219490      -0.00133516       0.01199528
N        5.61442975       3.24149035      30.78473591        0       0.00008969      -0.00002223       0.00165839
H        6.43566889       3.72207818      30.39397567        0      -0.01754800      -0.01014128       0.00272061
H        5.62001170       2.28998190      30.39397924        0      -0.00001557       0.02024108       0.00270945
H        4.78760921       3.71240894      30.39398140        0       0.01747472      -0.01007635       0.00267925
