40
Lattice="8.421641763931781 0.0 0.0 4.2108208819658905 7.293355709136913 0.0 0.0 0.0 46.87624170604845" Properties=species:S:1:pos:R:3:tags:I:1:forces:R:3 charge=0 spin=0 energy=-206.42911983451012 free_energy=-206.42911983451012 stress="0.010478099808096886 1.889440959246258e-08 1.3712849522562465e-08 1.889440959246258e-08 0.010478104464709759 -3.2919678094600613e-09 1.3712849522562465e-08 -3.2919678094600613e-09 -7.653073407709599e-05" pbc="T T T"
Pt      -0.00000003       0.00000022      19.95723434        4      -0.00015015       0.00020670       0.01786571
Pt       2.80721396      -0.00000018      19.95723452        4      -0.00010980      -0.00023614       0.01785525
Pt       5.61442778      -0.00000004      19.95723454        4      -0.00011842      -0.00018455       0.01850402
Pt       1.40360719       2.43111838      19.95723440        4       0.00026023       0.00002872       0.01785635
Pt       4.21082079       2.43111832      19.95723449        4       0.00023552       0.00000374       0.01875169
Pt       7.01803484       2.43111842      19.95723441        4      -0.00011950       0.00020058       0.01874904
Pt       2.80721406       4.86223725      19.95723409        4      -0.00009872       0.00019437       0.01851259
Pt       5.61442803       4.86223733      19.95723425        4      -0.00011875      -0.00020431       0.01875667
Pt       8.42164141       4.86223723      19.95723442        4       0.00022057      -0.00001186       0.01849798
Pt       1.40360730       0.81037260      22.29206788        3      -0.00000373       0.00000090      -0.04675018
Pt       4.21082126       0.81037254      22.29206791        3       0.00054246       0.00052989      -0.05240907
Pt       7.01803479       0.81037259      22.29206783        3       0.00022467       0.00085783      -0.05270901
Pt       2.80721452       3.24149125      22.29206775        3       0.00062799      -0.00061558      -0.05271945
Pt       5.61442760       3.24149123      22.29206789        3       0.00000318       0.00000109      -0.05014837
Pt       8.42164156       3.24149116      22.29206803        3      -0.00071896       0.00021199      -0.05243375
Pt       4.21082093       5.67260998      22.29206800        3       0.00017576      -0.00073338      -0.05241571
Pt       7.01803487       5.67261039      22.29206775        3      -0.00086202      -0.00024690      -0.05271679
Pt       9.82524824       5.67261062      22.29206803        3       0.00000946      -0.00001061      -0.05190346
Pt      -0.00000058       1.62074570      24.58417378        2       0.00386287      -0.00222764       0.03633142
Pt       2.80721444       1.62074548      24.58417392        2      -0.00385168      -0.00223771       0.03632234
Pt       5.61442778       1.62074537      24.58417373        2       0.00037305      -0.00154784       0.03538628
Pt       1.40360636       4.05186440      24.58417384        2      -0.00095248      -0.00162180       0.04176218
Pt       4.21082088       4.05186399      24.58417380        2      -0.00153396       0.00046522       0.03538866
Pt       7.01803502       4.05186406      24.58417406        2       0.00115121       0.00111939       0.03538871
Pt       2.80721280       6.48298341      24.58417369        2       0.00190561      -0.00001545       0.04180533
Pt       5.61442796       6.48298324      24.58417387        2      -0.00000849       0.00443291       0.03636615
Pt       8.42164221       6.48298340      24.58417380        2      -0.00094500       0.00165220       0.04180338
Pt      -0.00051257      -0.00060942      26.91724181        1       0.00309181       0.00202277      -0.00930778
Pt       2.80799970      -0.00013529      26.91724630        1      -0.00331457       0.00164865      -0.00926187
Pt       5.61393362       0.00049433      26.91711619        1       0.00004224      -0.00211545      -0.00686177
Pt       1.40333423       2.43187008      26.91722625        1       0.00022574      -0.00370865      -0.00942419
Pt       4.20856956       2.43075858      26.91578104        1       0.01036099       0.00448123       0.00056155
Pt       7.01947814       2.42935775      26.91577538        1      -0.00903737       0.00675628       0.00055678
Pt       2.80787560       4.86242756      26.91711050        1      -0.00185718       0.00101464      -0.00693781
Pt       5.61523540       4.86436427      26.91579280        1      -0.00132543      -0.01120612       0.00063030
Pt       8.42147380       4.86156924      26.91710931        1       0.00181289       0.00109965      -0.00689990
N        5.61443036       3.24148550      30.95617241        0      -0.00007431       0.00005974      -0.00103889
H        4.78804210       2.77787150      30.55763932        0      -0.03474515      -0.01947912       0.00210307
H        5.62611859       4.18896675      30.55764023        0       0.00050791       0.03981232       0.00211537
H        6.42912350       2.75762412      30.55763369        0       0.03431127      -0.02039755       0.00206717
