40
Lattice="8.421641763931781 0.0 0.0 4.2108208819658905 7.293355709136913 0.0 0.0 0.0 46.87624170604845" Properties=species:S:1:pos:R:3:tags:I:1:forces:R:3 charge=0 spin=0 energy=-206.4241836162484 free_energy=-206.4241836162484 stress="0.010422379709780216 3.978162865792001e-08 -3.0423084496078445e-08 3.978162865792001e-08 0.010422488674521446 1.0717675280602634e-07 -3.0423084496078445e-08 1.0717675280602634e-07 -0.00023646648332942277" pbc="T T T"
Pt      -0.00000003       0.00000022      19.95723434        4      -0.00060891      -0.00000147       0.01770771
Pt       2.80721396      -0.00000018      19.95723452        4       0.00029901      -0.00052655       0.01769671
Pt       5.61442778      -0.00000004      19.95723454        4      -0.00003184      -0.00029736       0.01849849
Pt       1.40360719       2.43111838      19.95723440        4       0.00030619       0.00052656       0.01770248
Pt       4.21082079       2.43111832      19.95723449        4       0.00015807      -0.00006389       0.01861526
Pt       7.01803484       2.43111842      19.95723441        4      -0.00002423       0.00016681       0.01861367
Pt       2.80721406       4.86223725      19.95723409        4      -0.00024143       0.00017514       0.01850968
Pt       5.61442803       4.86223733      19.95723425        4      -0.00013933      -0.00010173       0.01861871
Pt       8.42164141       4.86223723      19.95723442        4       0.00027400       0.00012150       0.01849486
Pt       1.40360730       0.81037260      22.29206788        3      -0.00000891       0.00000346      -0.04672382
Pt       4.21082126       0.81037254      22.29206791        3       0.00093720       0.00154293      -0.05180445
Pt       7.01803479       0.81037259      22.29206783        3      -0.00017710       0.00158284      -0.05207408
Pt       2.80721452       3.24149125      22.29206775        3       0.00144333      -0.00062745      -0.05208300
Pt       5.61442760       3.24149123      22.29206789        3      -0.00000237       0.00000738      -0.05359221
Pt       8.42164156       3.24149116      22.29206803        3      -0.00179882       0.00006168      -0.05181629
Pt       4.21082093       5.67260998      22.29206800        3       0.00084379      -0.00158127      -0.05180709
Pt       7.01803487       5.67261039      22.29206775        3      -0.00129360      -0.00094254      -0.05208853
Pt       9.82524824       5.67261062      22.29206803        3       0.00000277      -0.00000428      -0.04987902
Pt      -0.00000058       1.62074570      24.58417378        2       0.00272264      -0.00267347       0.01075174
Pt       2.80721444       1.62074548      24.58417392        2      -0.00367257      -0.00099616       0.01072178
Pt       5.61442778       1.62074537      24.58417373        2       0.00234632      -0.01432855       0.00179437
Pt       1.40360636       4.05186440      24.58417384        2      -0.00063296       0.00354502       0.03533986
Pt       4.21082088       4.05186399      24.58417380        2      -0.01355957       0.00515767       0.00176536
Pt       7.01803502       4.05186406      24.58417406        2       0.01125400       0.00919446       0.00177791
Pt       2.80721280       6.48298341      24.58417369        2      -0.00270743      -0.00232527       0.03537826
Pt       5.61442796       6.48298324      24.58417387        2       0.00097738       0.00367566       0.01075025
Pt       8.42164221       6.48298340      24.58417380        2       0.00337777      -0.00119968       0.03536904
Pt       0.00137479      -0.00057552      26.91171500        1      -0.01397568      -0.00252740       0.01392821
Pt       2.80704055       0.00147032      26.91171633        1       0.00915335      -0.01087158       0.01396807
Pt       5.61370704       0.00102351      26.91720372        1       0.00336229      -0.01955745      -0.00569267
Pt       1.40243752       2.43022355      26.91170628        1       0.00482685       0.01335414       0.01375821
Pt       4.21288861       2.43206068      26.90730256        1      -0.02784902      -0.01059200       0.03992012
Pt       7.01620377       2.43242714      26.90730410        1       0.02309455      -0.01881550       0.03988291
Pt       2.80847994       4.86236058      26.91719500        1      -0.01864426       0.00683861      -0.00577079
Pt       5.61422707       4.85998553      26.90730948        1       0.00473503       0.02938193       0.04000356
Pt       8.42113244       4.86109025      26.91719675        1       0.01525400       0.01269681      -0.00575179
N        5.61438418       3.24142533      30.80523181        0       0.00004545      -0.00002225      -0.01902645
H        5.78314568       2.30504276      30.41306015        0      -0.00476669       0.03413057       0.00952439
H        4.71901082       3.56346259      30.41320233        0       0.03189771      -0.01285518       0.00949568
H        6.34090597       3.85582742      30.41309791        0      -0.02717660      -0.02125187       0.00952295
