40
Lattice="8.421641763931781 0.0 0.0 4.2108208819658905 7.293355709136913 0.0 0.0 0.0 46.87624170604845" Properties=species:S:1:pos:R:3:tags:I:1:forces:R:3 charge=0 spin=0 energy=-206.42484165152672 free_energy=-206.42484165152672 stress="0.01053341943770647 1.4442059104169402e-08 1.3101590923270123e-08 1.4442059104169402e-08 0.010533316992223263 -1.7313762157300516e-07 1.3101590923270123e-08 -1.7313762157300516e-07 -8.09821085567819e-06" pbc="T T T"
Pt      -0.00000003       0.00000022      19.95723434        4      -0.00042444       0.00010100       0.01808511
Pt       2.80721396      -0.00000018      19.95723452        4       0.00011808      -0.00041962       0.01807357
Pt       5.61442778      -0.00000004      19.95723454        4      -0.00015073      -0.00023299       0.01844751
Pt       1.40360719       2.43111838      19.95723440        4       0.00030485       0.00031717       0.01807204
Pt       4.21082079       2.43111832      19.95723449        4       0.00003867      -0.00015884       0.01870809
Pt       7.01803484       2.43111842      19.95723441        4       0.00012075       0.00010866       0.01870527
Pt       2.80721406       4.86223725      19.95723409        4      -0.00012353       0.00024817       0.01845733
Pt       5.61442803       4.86223733      19.95723425        4      -0.00015888       0.00004560       0.01871725
Pt       8.42164141       4.86223723      19.95723442        4       0.00028276      -0.00001794       0.01844251
Pt       1.40360730       0.81037260      22.29206788        3       0.00000117      -0.00000863      -0.04579588
Pt       4.21082126       0.81037254      22.29206791        3       0.00126027       0.00065658      -0.05199571
Pt       7.01803479       0.81037259      22.29206783        3      -0.00046993       0.00091491      -0.05235220
Pt       2.80721452       3.24149125      22.29206775        3       0.00103563      -0.00005862      -0.05235720
Pt       5.61442760       3.24149123      22.29206789        3       0.00000967      -0.00000635      -0.05319295
Pt       8.42164156       3.24149116      22.29206803        3      -0.00119573       0.00075843      -0.05200569
Pt       4.21082093       5.67260998      22.29206800        3      -0.00005559      -0.00143122      -0.05198279
Pt       7.01803487       5.67261039      22.29206775        3      -0.00056468      -0.00088356      -0.05238074
Pt       9.82524824       5.67261062      22.29206803        3       0.00000873      -0.00001702      -0.05379837
Pt      -0.00000058       1.62074570      24.58417378        2       0.01028202      -0.00589784       0.05388392
Pt       2.80721444       1.62074548      24.58417392        2      -0.01026715      -0.00591443       0.05379013
Pt       5.61442778       1.62074537      24.58417373        2       0.00100179      -0.00701153       0.02931506
Pt       1.40360636       4.05186440      24.58417384        2      -0.00133352      -0.00940297       0.05431896
Pt       4.21082088       4.05186399      24.58417380        2      -0.00661120       0.00267449       0.02922478
Pt       7.01803502       4.05186406      24.58417406        2       0.00558716       0.00431770       0.02925771
Pt       2.80721280       6.48298341      24.58417369        2       0.00881878       0.00354734       0.05437393
Pt       5.61442796       6.48298324      24.58417387        2      -0.00009533       0.01186294       0.05378500
Pt       8.42164221       6.48298340      24.58417380        2      -0.00742584       0.00586862       0.05431699
Pt       0.00080346       0.00000245      26.92407761        1      -0.00205214       0.00031581      -0.03624528
Pt       2.80681424       0.00072024      26.92401890        1       0.00079501      -0.00191315      -0.03600671
Pt       5.61424934      -0.00018199      26.91766433        1      -0.00040564      -0.00263032      -0.00899344
Pt       1.40319627       2.43043919      26.92406075        1       0.00127175       0.00162057      -0.03627857
Pt       4.21127802       2.43214419      26.91386200        1      -0.01438693      -0.00932774       0.01016076
Pt       7.01695586       2.43100953      26.91389317        1       0.01517734      -0.00771806       0.01004772
Pt       2.80711077       4.86252290      26.91764568        1      -0.00206934       0.00159185      -0.00906034
Pt       5.61505583       4.86135467      26.91384990        1      -0.00083828       0.01708345       0.01018693
Pt       8.42189752       4.86218914      26.91763381        1       0.00251283       0.00102032      -0.00898963
N        5.61442892       3.24149277      31.02585189        0       0.00011182      -0.00000134       0.02647673
H        5.62772349       2.29184305      30.63237783        0       0.00020524      -0.00777873      -0.01113479
H        4.78535751       3.70480280      30.63238751        0      -0.00689040       0.00372664      -0.01116479
H        6.43020060       3.72783313      30.63237262        0       0.00657488       0.00405063      -0.01111206
