40
Lattice="8.421641763931781 0.0 0.0 4.2108208819658905 7.293355709136913 0.0 0.0 0.0 46.87624170604845" Properties=species:S:1:pos:R:3:tags:I:1:forces:R:3 charge=0 spin=0 energy=-206.42596126517418 free_energy=-206.42596126517418 stress="0.010493145324289799 -6.863800905421158e-08 2.4008535159936173e-09 -6.863800905421158e-08 0.010493063367903233 1.7628599380259402e-07 2.4008535159936173e-09 1.7628599380259402e-07 -4.03568301408086e-05" pbc="T T T"
Pt      -0.00000003       0.00000022      19.95723434        4      -0.00008361       0.00020435       0.01786863
Pt       2.80721396      -0.00000018      19.95723452        4      -0.00014318      -0.00018022       0.01785875
Pt       5.61442778      -0.00000004      19.95723454        4      -0.00018349      -0.00028801       0.01853572
Pt       1.40360719       2.43111838      19.95723440        4       0.00022525      -0.00002746       0.01785277
Pt       4.21082079       2.43111832      19.95723449        4       0.00036321       0.00010480       0.01877864
Pt       7.01803484       2.43111842      19.95723441        4      -0.00027242       0.00026109       0.01877756
Pt       2.80721406       4.86223725      19.95723409        4      -0.00015445       0.00030125       0.01853678
Pt       5.61442803       4.86223733      19.95723425        4      -0.00009485      -0.00036560       0.01877771
Pt       8.42164141       4.86223723      19.95723442        4       0.00034071      -0.00001734       0.01852196
Pt       1.40360730       0.81037260      22.29206788        3      -0.00000701       0.00001596      -0.04722434
Pt       4.21082126       0.81037254      22.29206791        3       0.00038176       0.00026789      -0.05252760
Pt       7.01803479       0.81037259      22.29206783        3       0.00051474       0.00071710      -0.05366179
Pt       2.80721452       3.24149125      22.29206775        3       0.00035417      -0.00081269      -0.05368001
Pt       5.61442760       3.24149123      22.29206789        3      -0.00000115       0.00000273      -0.04717193
Pt       8.42164156       3.24149116      22.29206803        3      -0.00040712       0.00019910      -0.05255800
Pt       4.21082093       5.67260998      22.29206800        3       0.00003275      -0.00047405      -0.05254072
Pt       7.01803487       5.67261039      22.29206775        3      -0.00089438       0.00006549      -0.05366341
Pt       9.82524824       5.67261062      22.29206803        3       0.00000835      -0.00001830      -0.05179099
Pt      -0.00000058       1.62074570      24.58417378        2       0.00211082      -0.00152128       0.05253504
Pt       2.80721444       1.62074548      24.58417392        2      -0.00237191      -0.00101657       0.05254740
Pt       5.61442778       1.62074537      24.58417373        2       0.00101077       0.00685080       0.03843081
Pt       1.40360636       4.05186440      24.58417384        2      -0.00102015      -0.00519586       0.03841242
Pt       4.21082088       4.05186399      24.58417380        2       0.00535433      -0.00432385       0.03830897
Pt       7.01803502       4.05186406      24.58417406        2      -0.00637450      -0.00256412       0.03831281
Pt       2.80721280       6.48298341      24.58417369        2       0.00502512       0.00175585       0.03845510
Pt       5.61442796       6.48298324      24.58417387        2       0.00029509       0.00266634       0.05243907
Pt       8.42164221       6.48298340      24.58417380        2      -0.00399418       0.00351199       0.03846231
Pt      -0.00210552      -0.00204588      26.91967993        1       0.01869213       0.01211025      -0.02091773
Pt       2.81007281      -0.00075338      26.91968279        1      -0.01991324       0.00997227      -0.02086739
Pt       5.61412110       0.00283597      26.91410416        1      -0.00040074      -0.01577608       0.00655482
Pt       1.40286913       2.43399718      26.91967010        1       0.00123131      -0.02226415      -0.02104634
Pt       4.20965558       2.43108789      26.92040377        1      -0.00197099      -0.00082482      -0.01853674
Pt       7.01867478       2.43014052      26.92039857        1       0.00169820      -0.00126583      -0.01852961
Pt       2.80981077       4.86111476      26.91407872        1      -0.01351291       0.00824692       0.00650793
Pt       5.61497350       4.86331444      26.92033864        1       0.00029053       0.00206501      -0.01830837
Pt       8.41936548       4.86057376      26.91408872        1       0.01387898       0.00759611       0.00651957
N        5.61441630       3.24279363      30.83921450        0      -0.00002010      -0.00026791      -0.02911192
H        6.09194913       2.42329978      30.44252094        0       0.02507968      -0.03976783       0.01313588
H        4.66755841       3.23626289      30.43872443        0      -0.04719007      -0.00195169       0.01305166
H        6.08377237       4.06330086      30.43493481        0       0.02212241       0.04200832       0.01295467
