40
Lattice="8.421641763931781 0.0 0.0 4.2108208819658905 7.293355709136913 0.0 0.0 0.0 46.87624170604845" Properties=species:S:1:pos:R:3:tags:I:1:forces:R:3 charge=0 spin=0 energy=-206.42747760733727 free_energy=-206.42747760733727 stress="0.010509378276765347 8.000005990993486e-09 3.039040663566084e-08 8.000005990993486e-09 0.01050935871899128 -4.454466662195955e-08 3.039040663566084e-08 -4.454466662195955e-08 -1.4394869140232913e-05" pbc="T T T"
Pt      -0.00000003       0.00000022      19.95723434        4      -0.00002372       0.00031789       0.01778523
Pt       2.80721396      -0.00000018      19.95723452        4      -0.00026899      -0.00018302       0.01777565
Pt       5.61442778      -0.00000004      19.95723454        4      -0.00019259      -0.00005704       0.01859562
Pt       1.40360719       2.43111838      19.95723440        4       0.00029428      -0.00013552       0.01777150
Pt       4.21082079       2.43111832      19.95723449        4       0.00033890       0.00014213       0.01881740
Pt       7.01803484       2.43111842      19.95723441        4      -0.00029037       0.00021969       0.01881362
Pt       2.80721406       4.86223725      19.95723409        4       0.00005100       0.00019576       0.01859836
Pt       5.61442803       4.86223733      19.95723425        4      -0.00004966      -0.00036294       0.01882030
Pt       8.42164141       4.86223723      19.95723442        4       0.00014688      -0.00014103       0.01858394
Pt       1.40360730       0.81037260      22.29206788        3       0.00000017      -0.00000180      -0.04805903
Pt       4.21082126       0.81037254      22.29206791        3       0.00010278      -0.00019780      -0.05280494
Pt       7.01803479       0.81037259      22.29206783        3       0.00071692       0.00037198      -0.05321357
Pt       2.80721452       3.24149125      22.29206775        3      -0.00003166      -0.00080310      -0.05323210
Pt       5.61442760       3.24149123      22.29206789        3       0.00000479      -0.00000201      -0.04576631
Pt       8.42164156       3.24149116      22.29206803        3       0.00012972       0.00018610      -0.05283617
Pt       4.21082093       5.67260998      22.29206800        3      -0.00022489       0.00000746      -0.05281349
Pt       7.01803487       5.67261039      22.29206775        3      -0.00068772       0.00041509      -0.05322732
Pt       9.82524824       5.67261062      22.29206803        3       0.00001162      -0.00001734      -0.05313247
Pt      -0.00000058       1.62074570      24.58417378        2       0.00005200      -0.00010767       0.05517408
Pt       2.80721444       1.62074548      24.58417392        2      -0.00011834      -0.00000538       0.05515775
Pt       5.61442778       1.62074537      24.58417373        2       0.00081800       0.00922188       0.04426409
Pt       1.40360636       4.05186440      24.58417384        2      -0.00084418      -0.00632511       0.04065025
Pt       4.21082088       4.05186399      24.58417380        2       0.00756652      -0.00531929       0.04422741
Pt       7.01803502       4.05186406      24.58417406        2      -0.00840078      -0.00389867       0.04423967
Pt       2.80721280       6.48298341      24.58417369        2       0.00591102       0.00244041       0.04068762
Pt       5.61442796       6.48298324      24.58417387        2       0.00005178       0.00007342       0.05516528
Pt       8.42164221       6.48298340      24.58417380        2      -0.00506631       0.00390221       0.04068633
Pt      -0.00133610      -0.00097499      26.92017439        1       0.01255920       0.00714515      -0.02253126
Pt       2.80872437      -0.00066439      26.92017134        1      -0.01245562       0.00733063      -0.02246993
Pt       5.61429486       0.00289046      26.91398504        1      -0.00113012      -0.01425328       0.00502147
Pt       1.40342717       2.43276948      26.92015226        1      -0.00009540      -0.01447008      -0.02263936
Pt       4.20978340       2.43063705      26.92246209        1      -0.00033988       0.00154818      -0.02656507
Pt       7.01897408       2.43046809      26.92246500        1      -0.00115897      -0.00105032      -0.02661076
Pt       2.80977750       4.86091613      26.91396927        1      -0.01182641       0.00810513       0.00500692
Pt       5.61452031       4.86338199      26.92247140        1       0.00151404      -0.00048364      -0.02647815
Pt       8.41920644       4.86068452      26.91397070        1       0.01293728       0.00618926       0.00501932
N        5.61442978       3.24148425      30.84149191        0      -0.00003630       0.00008783      -0.04184611
H        6.42457904       2.75123210      30.44049176        0       0.03591067      -0.02184144       0.01776901
H        4.78477787       2.78500550      30.44049898        0      -0.03683077      -0.02017068       0.01778651
H        5.63392740       4.18822899      30.44050716        0       0.00095523       0.04192694       0.01780847
