40
Lattice="8.421641763931781 0.0 0.0 4.2108208819658905 7.293355709136913 0.0 0.0 0.0 46.87624170604845" Properties=species:S:1:pos:R:3:tags:I:1:forces:R:3 charge=0 spin=0 energy=-206.42601085623863 free_energy=-206.42601085623863 stress="0.010491269640624523 -6.223201012289792e-07 7.8911490675182e-09 -6.223201012289792e-07 0.01049096416682005 5.597008225777245e-07 7.8911490675182e-09 5.597008225777245e-07 -4.357146826805547e-05" pbc="T T T"
Pt      -0.00000003       0.00000022      19.95723434        4      -0.00012467       0.00027981       0.01784287
Pt       2.80721396      -0.00000018      19.95723452        4      -0.00019266      -0.00026032       0.01782586
Pt       5.61442778      -0.00000004      19.95723454        4      -0.00017714      -0.00025948       0.01852421
Pt       1.40360719       2.43111838      19.95723440        4       0.00031780      -0.00003073       0.01781988
Pt       4.21082079       2.43111832      19.95723449        4       0.00030215       0.00015504       0.01881013
Pt       7.01803484       2.43111842      19.95723441        4      -0.00028381       0.00018367       0.01880673
Pt       2.80721406       4.86223725      19.95723409        4      -0.00012935       0.00028654       0.01852363
Pt       5.61442803       4.86223733      19.95723425        4      -0.00002371      -0.00033577       0.01880147
Pt       8.42164141       4.86223723      19.95723442        4       0.00031604      -0.00003244       0.01851227
Pt       1.40360730       0.81037260      22.29206788        3       0.00002243       0.00003472      -0.04714468
Pt       4.21082126       0.81037254      22.29206791        3       0.00021914       0.00018995      -0.05315927
Pt       7.01803479       0.81037259      22.29206783        3       0.00039798       0.00070462      -0.05298447
Pt       2.80721452       3.24149125      22.29206775        3       0.00038819      -0.00072292      -0.05301043
Pt       5.61442760       3.24149123      22.29206789        3       0.00000785       0.00000665      -0.04731847
Pt       8.42164156       3.24149116      22.29206803        3      -0.00025254       0.00007365      -0.05318629
Pt       4.21082093       5.67260998      22.29206800        3       0.00006604      -0.00033434      -0.05312606
Pt       7.01803487       5.67261039      22.29206775        3      -0.00082761      -0.00001614      -0.05300993
Pt       9.82524824       5.67261062      22.29206803        3       0.00000872      -0.00002842      -0.05175926
Pt      -0.00000058       1.62074570      24.58417378        2       0.00248569      -0.00116052       0.05186538
Pt       2.80721444       1.62074548      24.58417392        2      -0.00234369      -0.00150134       0.05182134
Pt       5.61442778       1.62074537      24.58417373        2       0.00131723       0.00723774       0.03816241
Pt       1.40360636       4.05186440      24.58417384        2      -0.00083945      -0.00474528       0.03806826
Pt       4.21082088       4.05186399      24.58417380        2       0.00543397      -0.00475790       0.03784199
Pt       7.01803502       4.05186406      24.58417406        2      -0.00674921      -0.00259866       0.03790476
Pt       2.80721280       6.48298341      24.58417369        2       0.00454192       0.00173955       0.03811719
Pt       5.61442796       6.48298324      24.58417387        2      -0.00022187       0.00304362       0.05155464
Pt       8.42164221       6.48298340      24.58417380        2      -0.00369263       0.00315517       0.03809311
Pt      -0.00285218      -0.00099794      26.91942001        1       0.02116720       0.01134018      -0.01995840
Pt       2.80956940      -0.00183408      26.91941173        1      -0.02064388       0.01221360      -0.01993135
Pt       5.61417711       0.00301455      26.91408032        1      -0.00015394      -0.01620774       0.00673149
Pt       1.40406828       2.43414838      26.91941388        1      -0.00052618      -0.02401851      -0.02012732
Pt       4.20989213       2.43035346      26.92032343        1      -0.00169186       0.00190438      -0.01809929
Pt       7.01918735       2.43076277      26.92037468        1      -0.00075174      -0.00239225      -0.01821388
Pt       2.80988860       4.86100661      26.91404399        1      -0.01400384       0.00826277       0.00674428
Pt       5.61418990       4.86353170      26.92017262        1       0.00247882       0.00045115      -0.01762726
Pt       8.41918680       4.86057252      26.91404934        1       0.01414623       0.00806033       0.00673949
N        5.61441438       3.24512747      30.84433944        0      -0.00002400      -0.00146351      -0.02737707
H        5.13755195       4.05818744      30.43381230        0      -0.02108065       0.04081104       0.01190667
H        6.56142609       3.24369319      30.44418023        0       0.04643893       0.00052550       0.01228302
H        5.14429080       2.41807504      30.45459426        0      -0.02532177      -0.03979328       0.01273231
