40
Lattice="8.421641763931781 0.0 0.0 4.2108208819658905 7.293355709136913 0.0 0.0 0.0 46.87624170604845" Properties=species:S:1:pos:R:3:tags:I:1:forces:R:3 charge=0 spin=0 energy=-206.42709232291344 free_energy=-206.42709232291344 stress="0.010525168851017952 -5.884235747544153e-07 -7.622341513524589e-08 -5.884235747544153e-07 0.010525415651500225 8.004176947906672e-07 -7.622341513524589e-08 8.004176947906672e-07 -1.917719237098936e-05" pbc="T T T"
Pt      -0.00000003       0.00000022      19.95723434        4      -0.00052883       0.00003142       0.01849055
Pt       2.80721396      -0.00000018      19.95723452        4      -0.00017347      -0.00017459       0.01808905
Pt       5.61442778      -0.00000004      19.95723454        4       0.00023897      -0.00047013       0.01847626
Pt       1.40360719       2.43111838      19.95723440        4      -0.00007176       0.00022825       0.01808663
Pt       4.21082079       2.43111832      19.95723449        4       0.00023738      -0.00005190       0.01808746
Pt       7.01803484       2.43111842      19.95723441        4       0.00002868      -0.00014029       0.01864969
Pt       2.80721406       4.86223725      19.95723409        4       0.00029771       0.00044887       0.01848956
Pt       5.61442803       4.86223733      19.95723425        4      -0.00014102       0.00004255       0.01865031
Pt       8.42164141       4.86223723      19.95723442        4       0.00010228       0.00009680       0.01863922
Pt       1.40360730       0.81037260      22.29206788        3      -0.00069563      -0.00096997      -0.04928002
Pt       4.21082126       0.81037254      22.29206791        3       0.00119489      -0.00008378      -0.04930041
Pt       7.01803479       0.81037259      22.29206783        3       0.00046819       0.00071467      -0.05226998
Pt       2.80721452       3.24149125      22.29206775        3      -0.00053412       0.00109227      -0.04933853
Pt       5.61442760       3.24149123      22.29206789        3       0.00096626       0.00020448      -0.05362798
Pt       8.42164156       3.24149116      22.29206803        3      -0.00063336       0.00076006      -0.05366006
Pt       4.21082093       5.67260998      22.29206800        3       0.00038070      -0.00077344      -0.05227099
Pt       7.01803487       5.67261039      22.29206775        3      -0.00032335      -0.00094716      -0.05364899
Pt       9.82524824       5.67261062      22.29206803        3      -0.00086898       0.00005821      -0.05230909
Pt      -0.00000058       1.62074570      24.58417378        2       0.00620545      -0.00707092       0.04703832
Pt       2.80721444       1.62074548      24.58417392        2      -0.00000137      -0.00002108       0.03996355
Pt       5.61442778       1.62074537      24.58417373        2      -0.00500318      -0.00816294       0.04731372
Pt       1.40360636       4.05186440      24.58417384        2       0.00974228      -0.00037779       0.04715019
Pt       4.21082088       4.05186399      24.58417380        2      -0.00928135      -0.00190038       0.04677364
Pt       7.01803502       4.05186406      24.58417406        2      -0.00003783      -0.00010357       0.02095673
Pt       2.80721280       6.48298341      24.58417369        2       0.00007326       0.00006051       0.06394833
Pt       5.61442796       6.48298324      24.58417387        2      -0.00457431       0.00859048       0.04729220
Pt       8.42164221       6.48298340      24.58417380        2       0.00296023       0.00904134       0.04682628
Pt      -0.00125958       0.00053791      26.92242812        1       0.00378044      -0.00134137      -0.02866676
Pt       2.80750879       0.00018750      26.91853995        1       0.00036894       0.00180918      -0.01393991
Pt       5.61461917      -0.00133925      26.92238162        1      -0.00067903       0.00405824      -0.02844208
Pt       1.40363563       2.43074213      26.91851789        1       0.00142568      -0.00115857      -0.01398495
Pt       4.21052968       2.43127381      26.91849071        1      -0.00182584      -0.00060465      -0.01384422
Pt       7.01685822       2.43156851      26.91438104        1       0.00276428      -0.01229506       0.00720496
Pt       2.80829944       4.86304909      26.92236409        1      -0.00312907      -0.00253281      -0.02857204
Pt       5.61538012       4.86307869      26.91427717        1      -0.01193690       0.00364000       0.00756393
Pt       8.42189874       4.86098021      26.91425016        1       0.00917452       0.00856710       0.00767990
N        7.01798879       4.05451384      31.00030731        0       0.00004296      -0.00099852       0.03334842
H        6.55384744       3.22271057      30.61410213        0      -0.00748615      -0.01552031      -0.01153139
H        6.53277421       4.86712764      30.59936384        0      -0.00876501       0.01267176      -0.01216727
H        7.96747042       4.06287383      30.60671518        0       0.01623740       0.00358315      -0.01186415
