40
Lattice="8.421641763931781 0.0 0.0 4.2108208819658905 7.293355709136913 0.0 0.0 0.0 46.87624170604845" Properties=species:S:1:pos:R:3:tags:I:1:forces:R:3 charge=0 spin=0 energy=-206.4249618144906 free_energy=-206.4249618144906 stress="0.010533587075769901 1.4799586445235491e-08 -2.153426414963633e-08 1.4799586445235491e-08 0.010533732362091541 1.6985671891234233e-07 -2.153426414963633e-08 1.6985671891234233e-07 -7.381099749181885e-06" pbc="T T T"
Pt      -0.00000003       0.00000022      19.95723434        4      -0.00046153       0.00003843       0.01855046
Pt       2.80721396      -0.00000018      19.95723452        4      -0.00027588      -0.00014197       0.01808354
Pt       5.61442778      -0.00000004      19.95723454        4       0.00019576      -0.00041760       0.01853695
Pt       1.40360719       2.43111838      19.95723440        4       0.00001237       0.00030656       0.01808356
Pt       4.21082079       2.43111832      19.95723449        4       0.00026155      -0.00016069       0.01808241
Pt       7.01803484       2.43111842      19.95723441        4       0.00002701      -0.00012779       0.01861108
Pt       2.80721406       4.86223725      19.95723409        4       0.00026951       0.00038325       0.01854768
Pt       5.61442803       4.86223733      19.95723425        4      -0.00012889       0.00003947       0.01862147
Pt       8.42164141       4.86223723      19.95723442        4       0.00009740       0.00008684       0.01860796
Pt       1.40360730       0.81037260      22.29206788        3      -0.00094887      -0.00099094      -0.04918727
Pt       4.21082126       0.81037254      22.29206791        3       0.00132788      -0.00030923      -0.04920369
Pt       7.01803479       0.81037259      22.29206783        3       0.00057075       0.00058385      -0.05279550
Pt       2.80721452       3.24149125      22.29206775        3      -0.00039984       0.00133238      -0.04922373
Pt       5.61442760       3.24149123      22.29206789        3       0.00102854       0.00020679      -0.05322235
Pt       8.42164156       3.24149116      22.29206803        3      -0.00067714       0.00080476      -0.05322948
Pt       4.21082093       5.67260998      22.29206800        3       0.00020830      -0.00077645      -0.05280678
Pt       7.01803487       5.67261039      22.29206775        3      -0.00034958      -0.00098916      -0.05321753
Pt       9.82524824       5.67261062      22.29206803        3      -0.00078138       0.00020597      -0.05283026
Pt      -0.00000058       1.62074570      24.58417378        2       0.00830836      -0.00801227       0.04836268
Pt       2.80721444       1.62074548      24.58417392        2      -0.00001282      -0.00004778       0.04545421
Pt       5.61442778       1.62074537      24.58417373        2      -0.00674895      -0.00860388       0.04811951
Pt       1.40360636       4.05186440      24.58417384        2       0.01082397      -0.00159146       0.04811569
Pt       4.21082088       4.05186399      24.58417380        2      -0.01102611      -0.00319085       0.04826719
Pt       7.01803502       4.05186406      24.58417406        2      -0.00003068       0.00000642       0.01581080
Pt       2.80721280       6.48298341      24.58417369        2       0.00005471       0.00002792       0.06725431
Pt       5.61442796       6.48298324      24.58417387        2      -0.00406937       0.01019278       0.04824533
Pt       8.42164221       6.48298340      24.58417380        2       0.00271761       0.01118835       0.04837016
Pt      -0.00057391      -0.00014944      26.92288058        1       0.00067269      -0.00012806      -0.03127962
Pt       2.80758313       0.00027310      26.91987876        1      -0.00031815       0.00336000      -0.01895576
Pt       5.61484523      -0.00043193      26.92283628        1      -0.00030696       0.00058766      -0.03108762
Pt       1.40367002       2.43062462      26.91983998        1       0.00312484      -0.00136748      -0.01895362
Pt       4.21039946       2.43128394      26.91982120        1      -0.00282914      -0.00197817      -0.01883918
Pt       7.01736343       2.43204729      26.91331872        1       0.00111725      -0.01731668       0.01201131
Pt       2.80736502       4.86277831      26.92280869        1      -0.00037210      -0.00045584      -0.03110825
Pt       5.61556276       4.86236872      26.91332567        1      -0.01552259       0.00758659       0.01200826
Pt       8.42116433       4.86116734      26.91331097        1       0.01444194       0.00967111       0.01204698
N        7.01803556       4.05186079      31.01049657        0      -0.00003537       0.00008721       0.02788190
H        7.84715495       3.58860643      30.61705764        0       0.00701457      -0.00379270      -0.01059989
H        6.20228145       3.56545190      30.61705957        0      -0.00674133      -0.00416941      -0.01058392
H        7.00466772       5.00153070      30.61705977        0      -0.00023833       0.00787207      -0.01054925
