40
Lattice="8.421641763931781 0.0 0.0 4.2108208819658905 7.293355709136913 0.0 0.0 0.0 46.87624170604845" Properties=species:S:1:pos:R:3:tags:I:1:forces:R:3 charge=0 spin=0 energy=-206.42585636099938 free_energy=-206.42585636099938 stress="0.010472791269421577 -3.233511458589078e-09 1.8771512344528674e-08 -3.233511458589078e-09 0.010472849011421204 -5.855762985618185e-09 1.8771512344528674e-08 -5.855762985618185e-09 -0.00011304305371595547" pbc="T T T"
Pt      -0.00000003       0.00000022      19.95723434        4      -0.00064736      -0.00015646       0.01850947
Pt       2.80721396      -0.00000018      19.95723452        4      -0.00018920       0.00015356       0.01783998
Pt       5.61442778      -0.00000004      19.95723454        4       0.00045625      -0.00048355       0.01849626
Pt       1.40360719       2.43111838      19.95723440        4       0.00022480       0.00008693       0.01784410
Pt       4.21082079       2.43111832      19.95723449        4      -0.00003500      -0.00023442       0.01784427
Pt       7.01803484       2.43111842      19.95723441        4      -0.00005945       0.00018467       0.01874989
Pt       2.80721406       4.86223725      19.95723409        4       0.00019507       0.00063915       0.01850508
Pt       5.61442803       4.86223733      19.95723425        4       0.00018633      -0.00004297       0.01875449
Pt       8.42164141       4.86223723      19.95723442        4      -0.00013102      -0.00014363       0.01873971
Pt       1.40360730       0.81037260      22.29206788        3      -0.00045622      -0.00073742      -0.05007779
Pt       4.21082126       0.81037254      22.29206791        3       0.00085832      -0.00001975      -0.05008453
Pt       7.01803479       0.81037259      22.29206783        3       0.00052742       0.00054828      -0.05213042
Pt       2.80721452       3.24149125      22.29206775        3      -0.00041410       0.00076969      -0.05009511
Pt       5.61442760       3.24149123      22.29206789        3       0.00068119      -0.00006443      -0.05230774
Pt       8.42164156       3.24149116      22.29206803        3      -0.00026955       0.00062782      -0.05231025
Pt       4.21082093       5.67260998      22.29206800        3       0.00020876      -0.00072169      -0.05214272
Pt       7.01803487       5.67261039      22.29206775        3      -0.00040885      -0.00055435      -0.05230644
Pt       9.82524824       5.67261062      22.29206803        3      -0.00072857       0.00017371      -0.05215223
Pt      -0.00000058       1.62074570      24.58417378        2       0.00018777      -0.00127980       0.02882410
Pt       2.80721444       1.62074548      24.58417392        2      -0.00000179      -0.00001404       0.02591060
Pt       5.61442778       1.62074537      24.58417373        2       0.00041321      -0.00186960       0.03338672
Pt       1.40360636       4.05186440      24.58417384        2       0.00140591       0.00129935       0.03338511
Pt       4.21082088       4.05186399      24.58417380        2      -0.00118693       0.00048541       0.02880077
Pt       7.01803502       4.05186406      24.58417406        2      -0.00000177      -0.00000215       0.03368497
Pt       2.80721280       6.48298341      24.58417369        2       0.00000532       0.00000071       0.04721211
Pt       5.61442796       6.48298324      24.58417387        2      -0.00181970       0.00054788       0.03340913
Pt       8.42164221       6.48298340      24.58417380        2       0.00099915       0.00077029       0.02884105
Pt       0.00104029       0.00234679      26.91667487        1      -0.00836269      -0.01225950      -0.00467323
Pt       2.80899844      -0.00166624      26.91419811        1      -0.00751102       0.00922170       0.00665901
Pt       5.61186739      -0.00028492      26.91667957        1       0.01481647      -0.00108857      -0.00462895
Pt       1.40128020       2.43039358      26.91418610        1       0.01177617       0.00188704       0.00654574
Pt       4.21136405       2.43348483      26.91418989        1      -0.00426272      -0.01111327       0.00659086
Pt       7.01739908       2.42826744      26.91611675        1      -0.00155098       0.01188001      -0.00297081
Pt       2.80873364       4.86015058      26.91666444        1      -0.00643465       0.01337793      -0.00479556
Pt       5.61228324       4.86420052      26.91611858        1       0.01101909      -0.00458189      -0.00303360
Pt       8.42442017       4.86309916      26.91611930        1      -0.00947510      -0.00728130      -0.00303178
N        7.01800795       4.05178904      30.83774642        0      -0.00000795       0.00007627      -0.03184609
H        6.67234827       4.93582139      30.44104605        0      -0.00215284       0.00149228       0.01335940
H        7.95633758       3.90934652      30.44074183        0       0.00239291       0.00108553       0.01335204
H        6.42538825       3.31061734      30.44046753        0      -0.00024673      -0.00265937       0.01334243
