40
Lattice="8.421641763931781 0.0 0.0 4.2108208819658905 7.293355709136913 0.0 0.0 0.0 46.87624170604845" Properties=species:S:1:pos:R:3:tags:I:1:forces:R:3 charge=0 spin=0 energy=-206.42411685904625 free_energy=-206.42411685904625 stress="0.010430306196212769 4.0319239502650817e-08 -1.6667888402821518e-08 4.0319239502650817e-08 0.01043030060827732 1.5833849786872634e-09 -1.6667888402821518e-08 1.5833849786872634e-09 -0.00017863782704807818" pbc="T T T"
Pt      -0.00000003       0.00000022      19.95723434        4      -0.00027714       0.00007172       0.01850671
Pt       2.80721396      -0.00000018      19.95723452        4      -0.00025033      -0.00047830       0.01782050
Pt       5.61442778      -0.00000004      19.95723454        4       0.00007356      -0.00027861       0.01849389
Pt       1.40360719       2.43111838      19.95723440        4      -0.00028994       0.00045539       0.01782054
Pt       4.21082079       2.43111832      19.95723449        4       0.00054224       0.00002824       0.01782319
Pt       7.01803484       2.43111842      19.95723441        4      -0.00020493       0.00000593       0.01854562
Pt       2.80721406       4.86223725      19.95723409        4       0.00020914       0.00020863       0.01849567
Pt       5.61442803       4.86223733      19.95723425        4       0.00010594       0.00017378       0.01854677
Pt       8.42164141       4.86223723      19.95723442        4       0.00009623      -0.00018092       0.01853014
Pt       1.40360730       0.81037260      22.29206788        3      -0.00037458      -0.00054028      -0.05219171
Pt       4.21082126       0.81037254      22.29206791        3       0.00065537      -0.00004750      -0.05219473
Pt       7.01803479       0.81037259      22.29206783        3       0.00039070      -0.00022816      -0.05292603
Pt       2.80721452       3.24149125      22.29206775        3      -0.00028599       0.00060764      -0.05222476
Pt       5.61442760       3.24149123      22.29206789        3      -0.00023207      -0.00114879      -0.04908947
Pt       8.42164156       3.24149116      22.29206803        3       0.00112797       0.00037916      -0.04909331
Pt       4.21082093       5.67260998      22.29206800        3      -0.00038851      -0.00021374      -0.05295829
Pt       7.01803487       5.67261039      22.29206775        3      -0.00088749       0.00078084      -0.04908707
Pt       9.82524824       5.67261062      22.29206803        3       0.00001436       0.00043947      -0.05296634
Pt      -0.00000058       1.62074570      24.58417378        2       0.00153746       0.00878222       0.02657969
Pt       2.80721444       1.62074548      24.58417392        2      -0.00000553      -0.00004337       0.03961477
Pt       5.61442778       1.62074537      24.58417373        2      -0.00068952       0.00974021       0.03279166
Pt       1.40360636       4.05186440      24.58417384        2      -0.00811975      -0.00546440       0.03277749
Pt       4.21082088       4.05186399      24.58417380        2       0.00684435      -0.00574478       0.02654274
Pt       7.01803502       4.05186406      24.58417406        2      -0.00001103      -0.00000569       0.00466019
Pt       2.80721280       6.48298341      24.58417369        2      -0.00000278       0.00002009      -0.00177072
Pt       5.61442796       6.48298324      24.58417387        2       0.00879334      -0.00429912       0.03281820
Pt       8.42164221       6.48298340      24.58417380        2      -0.00840756      -0.00306251       0.02660575
Pt      -0.00202725      -0.00065246      26.90689278        1       0.02191476       0.00880248       0.03474768
Pt       2.80941311      -0.00147410      26.91764606        1      -0.01021357       0.02064160      -0.01099734
Pt       5.61598417      -0.00143618      26.90689890        1      -0.01857424       0.01457515       0.03472003
Pt       1.40122883       2.42991902      26.91760831        1       0.02301510      -0.00143976      -0.01088589
Pt       4.21097249       2.43374873      26.91761387        1      -0.01278282      -0.01917226      -0.01088746
Pt       7.01904616       2.43702773      26.91732393        1      -0.00861703      -0.04777865      -0.00144245
Pt       2.80766255       4.86430074      26.90686687        1      -0.00337016      -0.02338615       0.03486377
Pt       5.61903341       4.85838249      26.91732465        1      -0.03705543       0.03137314      -0.00139735
Pt       8.41599383       4.86015312      26.91732340        1       0.04571836       0.01642372      -0.00142152
N        7.01808989       4.05191686      30.81917221        0       0.00006374       0.00009165      -0.00110466
H        7.92269115       3.76402082      30.42425427        0       0.01600360      -0.00380364       0.00378674
H        6.31646899       3.41247962      30.42420551        0      -0.01110854      -0.01204827       0.00374948
H        6.81515990       4.97926169      30.42420531        0      -0.00495729       0.01576399       0.00379791
