40
Lattice="8.421641763931781 0.0 0.0 4.2108208819658905 7.293355709136913 0.0 0.0 0.0 46.87624170604845" Properties=species:S:1:pos:R:3:tags:I:1:forces:R:3 charge=0 spin=0 energy=-206.42495418509606 free_energy=-206.42495418509606 stress="0.010533694177865982 1.1933153132304142e-08 -2.8986990585622152e-08 1.1933153132304142e-08 0.010533810593187809 1.8361188836024667e-07 -2.8986990585622152e-08 1.8361188836024667e-07 -7.265940439538099e-06" pbc="T T T"
Pt      -0.00000003       0.00000022      19.95723434        4      -0.00046207       0.00003813       0.01855076
Pt       2.80721396      -0.00000018      19.95723452        4      -0.00027567      -0.00014288       0.01808388
Pt       5.61442778      -0.00000004      19.95723454        4       0.00019614      -0.00041771       0.01853685
Pt       1.40360719       2.43111838      19.95723440        4       0.00001144       0.00030680       0.01808367
Pt       4.21082079       2.43111832      19.95723449        4       0.00026235      -0.00016013       0.01808254
Pt       7.01803484       2.43111842      19.95723441        4       0.00002699      -0.00012700       0.01861068
Pt       2.80721406       4.86223725      19.95723409        4       0.00026942       0.00038349       0.01854747
Pt       5.61442803       4.86223733      19.95723425        4      -0.00012788       0.00003891       0.01862075
Pt       8.42164141       4.86223723      19.95723442        4       0.00009651       0.00008621       0.01860735
Pt       1.40360730       0.81037260      22.29206788        3      -0.00094730      -0.00098965      -0.04919261
Pt       4.21082126       0.81037254      22.29206791        3       0.00132632      -0.00030857      -0.04920851
Pt       7.01803479       0.81037259      22.29206783        3       0.00057110       0.00058318      -0.05279341
Pt       2.80721452       3.24149125      22.29206775        3      -0.00039916       0.00133071      -0.04922955
Pt       5.61442760       3.24149123      22.29206789        3       0.00102735       0.00020665      -0.05321851
Pt       8.42164156       3.24149116      22.29206803        3      -0.00067641       0.00080409      -0.05322567
Pt       4.21082093       5.67260998      22.29206800        3       0.00020775      -0.00077581      -0.05280487
Pt       7.01803487       5.67261039      22.29206775        3      -0.00034956      -0.00098778      -0.05321435
Pt       9.82524824       5.67261062      22.29206803        3      -0.00078102       0.00020637      -0.05282865
Pt      -0.00000058       1.62074570      24.58417378        2       0.00830113      -0.00801541       0.04835319
Pt       2.80721444       1.62074548      24.58417392        2      -0.00001300      -0.00004796       0.04548234
Pt       5.61442778       1.62074537      24.58417373        2      -0.00674326      -0.00860679       0.04811100
Pt       1.40360636       4.05186440      24.58417384        2       0.01082121      -0.00158704       0.04810190
Pt       4.21082088       4.05186399      24.58417380        2      -0.01102342      -0.00318359       0.04825699
Pt       7.01803502       4.05186406      24.58417406        2      -0.00003067       0.00000673       0.01578032
Pt       2.80721280       6.48298341      24.58417369        2       0.00005432       0.00003041       0.06726540
Pt       5.61442796       6.48298324      24.58417387        2      -0.00407416       0.01018845       0.04823706
Pt       8.42164221       6.48298340      24.58417380        2       0.00272307       0.01118353       0.04836031
Pt      -0.00056832      -0.00014619      26.92287543        1       0.00063954      -0.00015039      -0.03124003
Pt       2.80758332       0.00026247      26.91987616        1      -0.00032098       0.00343902      -0.01895419
Pt       5.61483942      -0.00042914      26.92283180        1      -0.00027147       0.00056926      -0.03105524
Pt       1.40366045       2.43062990      26.91983700        1       0.00319502      -0.00140687      -0.01895113
Pt       4.21040841       2.43128946      26.91981907        1      -0.00289363      -0.00202008      -0.01883894
Pt       7.01736339       2.43205791      26.91332097        1       0.00111473      -0.01739897       0.01202908
Pt       2.80736444       4.86277151      26.92280451        1      -0.00037464      -0.00041368      -0.03106968
Pt       5.61557183       4.86236350      26.91332781        1      -0.01559337       0.00762772       0.01202270
Pt       8.42115582       4.86116224      26.91331331        1       0.01450781       0.00971149       0.01206339
N        7.01803635       4.05186288      31.01096808        0      -0.00005152      -0.00003045       0.02775043
H        7.00466168       5.00153171      30.61752920        0      -0.00023252       0.00786427      -0.01057523
H        7.84715864       3.58861017      30.61752558        0       0.00693221      -0.00373330      -0.01058307
H        6.20228283       3.56544627      30.61753067        0      -0.00664252      -0.00410166      -0.01055440
