40
Lattice="8.421641763931781 0.0 0.0 4.2108208819658905 7.293355709136913 0.0 0.0 0.0 46.87624170604845" Properties=species:S:1:pos:R:3:tags:I:1:forces:R:3 charge=0 spin=0 energy=-206.42611576041344 free_energy=-206.42611576041344 stress="0.010513583198189735 -4.498286543253016e-08 3.431894768368693e-09 -4.498286543253016e-08 0.010513685643672943 -1.3022973632814683e-07 3.431894768368693e-09 -1.3022973632814683e-07 -1.4151087270874996e-05" pbc="T T T"
Pt      -0.00000003       0.00000022      19.95723434        4      -0.00069739      -0.00011483       0.01855546
Pt       2.80721396      -0.00000018      19.95723452        4      -0.00009014      -0.00004957       0.01789223
Pt       5.61442778      -0.00000004      19.95723454        4       0.00044505      -0.00054622       0.01854310
Pt       1.40360719       2.43111838      19.95723440        4      -0.00000081       0.00010614       0.01790023
Pt       4.21082079       2.43111832      19.95723449        4       0.00009385      -0.00004756       0.01789855
Pt       7.01803484       2.43111842      19.95723441        4      -0.00002049       0.00012044       0.01877957
Pt       2.80721406       4.86223725      19.95723409        4       0.00025479       0.00066046       0.01855003
Pt       5.61442803       4.86223733      19.95723425        4       0.00011237      -0.00004210       0.01878604
Pt       8.42164141       4.86223723      19.95723442        4      -0.00009316      -0.00007732       0.01876954
Pt       1.40360730       0.81037260      22.29206788        3      -0.00014139      -0.00057486      -0.05099008
Pt       4.21082126       0.81037254      22.29206791        3       0.00055435       0.00016289      -0.05099351
Pt       7.01803479       0.81037259      22.29206783        3       0.00042915       0.00076959      -0.05145107
Pt       2.80721452       3.24149125      22.29206775        3      -0.00041425       0.00042700      -0.05098321
Pt       5.61442760       3.24149123      22.29206789        3       0.00046619      -0.00017202      -0.05251205
Pt       8.42164156       3.24149116      22.29206803        3      -0.00006897       0.00049749      -0.05250153
Pt       4.21082093       5.67260998      22.29206800        3       0.00044375      -0.00073212      -0.05147258
Pt       7.01803487       5.67261039      22.29206775        3      -0.00039395      -0.00029984      -0.05250572
Pt       9.82524824       5.67261062      22.29206803        3      -0.00085582      -0.00002307      -0.05147468
Pt      -0.00000058       1.62074570      24.58417378        2      -0.00206777      -0.00160006       0.04534482
Pt       2.80721444       1.62074548      24.58417392        2      -0.00000682      -0.00004089       0.03742041
Pt       5.61442778       1.62074537      24.58417373        2       0.00302341      -0.00221956       0.04689114
Pt       1.40360636       4.05186440      24.58417384        2       0.00030412       0.00375659       0.04696744
Pt       4.21082088       4.05186399      24.58417380        2      -0.00026159       0.00260687       0.04538144
Pt       7.01803502       4.05186406      24.58417406        2       0.00000039       0.00004253       0.04611985
Pt       2.80721280       6.48298341      24.58417369        2      -0.00000609      -0.00001064       0.05725333
Pt       5.61442796       6.48298324      24.58417387        2      -0.00339510      -0.00162236       0.04698512
Pt       8.42164221       6.48298340      24.58417380        2       0.00236475      -0.00111461       0.04544586
Pt       0.00021089       0.00133599      26.91974255        1      -0.00370629      -0.00527155      -0.01837145
Pt       2.80799393      -0.00219849      26.91608845        1      -0.00198193       0.01293209      -0.00372766
Pt       5.61311994      -0.00053888      26.91974630        1       0.00651020      -0.00040611      -0.01831144
Pt       1.40132773       2.43149999      26.91606361        1       0.01222464      -0.00476235      -0.00380953
Pt       4.21230248       2.43286107      26.91606931        1      -0.01024003      -0.00818834      -0.00375173
Pt       7.01694200       2.42991472      26.92055538        1       0.00179912       0.00055892      -0.02052698
Pt       2.80828901       4.86134207      26.91972724        1      -0.00279733       0.00585104      -0.01846363
Pt       5.61395739       4.86373681      26.92060978        1      -0.00046538      -0.00182972      -0.02070340
Pt       8.42317652       4.86185626      26.92061661        1      -0.00132195       0.00127690      -0.02072908
N        7.01804582       4.05057888      30.84197870        0       0.00002874       0.00020052      -0.03928636
H        6.54783988       3.23012118      30.43779093        0      -0.01584794      -0.03096395       0.01634476
H        6.54101473       4.87073188      30.44524714        0      -0.01875845       0.02898550       0.01636831
H        7.96525721       4.05630889      30.44151683        0       0.03457823       0.00175478       0.01636821
