40
Lattice="8.421641763931781 0.0 0.0 4.2108208819658905 7.293355709136913 0.0 0.0 0.0 46.87624170604845" Properties=species:S:1:pos:R:3:tags:I:1:forces:R:3 charge=0 spin=0 energy=-206.42705608328941 free_energy=-206.42705608328941 stress="0.010526307858526707 -5.79660650146252e-07 -7.012369707126709e-08 -5.79660650146252e-07 0.010526124387979507 -9.400961289429688e-07 -7.012369707126709e-08 -9.400961289429688e-07 -1.9424245692789555e-05" pbc="T T T"
Pt      -0.00000003       0.00000022      19.95723434        4      -0.00050323      -0.00002982       0.01852525
Pt       2.80721396      -0.00000018      19.95723452        4      -0.00034203      -0.00018004       0.01803998
Pt       5.61442778      -0.00000004      19.95723454        4       0.00027198      -0.00042274       0.01852194
Pt       1.40360719       2.43111838      19.95723440        4       0.00001335       0.00037828       0.01804323
Pt       4.21082079       2.43111832      19.95723449        4       0.00032234      -0.00018759       0.01805118
Pt       7.01803484       2.43111842      19.95723441        4       0.00001708      -0.00012453       0.01862951
Pt       2.80721406       4.86223725      19.95723409        4       0.00024018       0.00044597       0.01852117
Pt       5.61442803       4.86223733      19.95723425        4      -0.00012745       0.00004805       0.01865406
Pt       8.42164141       4.86223723      19.95723442        4       0.00009900       0.00007589       0.01864301
Pt       1.40360730       0.81037260      22.29206788        3      -0.00078718      -0.00063340      -0.04951416
Pt       4.21082126       0.81037254      22.29206791        3       0.00092999      -0.00038632      -0.04953599
Pt       7.01803479       0.81037259      22.29206783        3       0.00057053       0.00077701      -0.05221485
Pt       2.80721452       3.24149125      22.29206775        3      -0.00019421       0.00103280      -0.04950614
Pt       5.61442760       3.24149123      22.29206789        3       0.00104406       0.00013146      -0.05343422
Pt       8.42164156       3.24149116      22.29206803        3      -0.00061814       0.00082252      -0.05350356
Pt       4.21082093       5.67260998      22.29206800        3       0.00033180      -0.00084919      -0.05220307
Pt       7.01803487       5.67261039      22.29206775        3      -0.00040383      -0.00092055      -0.05341528
Pt       9.82524824       5.67261062      22.29206803        3      -0.00091680       0.00011401      -0.05225775
Pt      -0.00000058       1.62074570      24.58417378        2       0.00639725      -0.00814161       0.04658535
Pt       2.80721444       1.62074548      24.58417392        2       0.00000219      -0.00012436       0.04119391
Pt       5.61442778       1.62074537      24.58417373        2      -0.00452548      -0.00711095       0.04644281
Pt       1.40360636       4.05186440      24.58417384        2       0.00821328      -0.00019189       0.04684122
Pt       4.21082088       4.05186399      24.58417380        2      -0.00982862      -0.00129806       0.04687245
Pt       7.01803502       4.05186406      24.58417406        2      -0.00009160       0.00022285       0.02004053
Pt       2.80721280       6.48298341      24.58417369        2       0.00005409      -0.00005949       0.06382351
Pt       5.61442796       6.48298324      24.58417387        2      -0.00387552       0.00714853       0.04700848
Pt       8.42164221       6.48298340      24.58417380        2       0.00373378       0.00929301       0.04691930
Pt      -0.00009299      -0.00145189      26.92220030        1      -0.00048121       0.00347800      -0.02794167
Pt       2.80777698      -0.00001672      26.91853775        1      -0.00095807       0.00310239      -0.01408728
Pt       5.61569767       0.00052520      26.92215042        1      -0.00301490      -0.00249434      -0.02774064
Pt       1.40338393       2.43057683      26.91846218        1       0.00317025      -0.00070175      -0.01393966
Pt       4.21053367       2.43155822      26.91845855        1      -0.00223322      -0.00241947      -0.01390340
Pt       7.01821811       2.43167537      26.91421065        1      -0.00156370      -0.01368953       0.00799264
Pt       2.80609384       4.86299964      26.92213755        1       0.00346803      -0.00129215      -0.02770639
Pt       5.61491883       4.86175250      26.91451876        1      -0.01120251       0.00813020       0.00702640
Pt       8.42098023       4.86202730      26.91443234        1       0.01275418       0.00556086       0.00722038
N        7.01800146       4.04663889      31.00059916        0      -0.00020122       0.00153739       0.03134979
H        6.06831707       4.05892818      30.60739594        0      -0.01232957      -0.00015640      -0.01132056
H        7.49717838       4.87352429      30.62206824        0       0.00881673       0.01037232      -0.01087518
H        7.48858976       3.22883130      30.59265947        0       0.00374851      -0.01125722      -0.01184611
