40
Lattice="8.421641763931781 0.0 0.0 4.2108208819658905 7.293355709136913 0.0 0.0 0.0 46.87624170604845" Properties=species:S:1:pos:R:3:tags:I:1:forces:R:3 charge=0 spin=0 energy=-206.42798877677086 free_energy=-206.42798877677086 stress="0.01053396612405777 -2.2385451270423573e-09 -2.3765505119399677e-08 -2.2385451270423573e-09 0.010534040629863739 3.243729906898807e-08 -2.3765505119399677e-08 3.243729906898807e-08 1.7388911146554165e-05" pbc="T T T"
Pt      -0.00000003       0.00000022      19.95723434        4      -0.00067609      -0.00014323       0.01852448
Pt       2.80721396      -0.00000018      19.95723452        4      -0.00015064      -0.00012892       0.01793004
Pt       5.61442778      -0.00000004      19.95723454        4       0.00045901      -0.00051521       0.01851189
Pt       1.40360719       2.43111838      19.95723440        4      -0.00004064       0.00019292       0.01793678
Pt       4.21082079       2.43111832      19.95723449        4       0.00019040      -0.00005976       0.01793704
Pt       7.01803484       2.43111842      19.95723441        4      -0.00002573       0.00007699       0.01880084
Pt       2.80721406       4.86223725      19.95723409        4       0.00022080       0.00065822       0.01852018
Pt       5.61442803       4.86223733      19.95723425        4       0.00007755      -0.00001856       0.01880181
Pt       8.42164141       4.86223723      19.95723442        4      -0.00005627      -0.00006117       0.01878797
Pt       1.40360730       0.81037260      22.29206788        3       0.00012114      -0.00007759      -0.05149397
Pt       4.21082126       0.81037254      22.29206791        3      -0.00000066       0.00015437      -0.05150153
Pt       7.01803479       0.81037259      22.29206783        3       0.00036129       0.00098779      -0.05069201
Pt       2.80721452       3.24149125      22.29206775        3      -0.00013738      -0.00005847      -0.05151572
Pt       5.61442760       3.24149123      22.29206789        3       0.00040413      -0.00022887      -0.05288205
Pt       8.42164156       3.24149116      22.29206803        3       0.00001179       0.00047724      -0.05288289
Pt       4.21082093       5.67260998      22.29206800        3       0.00066707      -0.00079747      -0.05071178
Pt       7.01803487       5.67261039      22.29206775        3      -0.00041808      -0.00023132      -0.05288677
Pt       9.82524824       5.67261062      22.29206803        3      -0.00102726      -0.00018607      -0.05072145
Pt      -0.00000058       1.62074570      24.58417378        2      -0.00396761      -0.00126716       0.05011262
Pt       2.80721444       1.62074548      24.58417392        2      -0.00000365      -0.00000949       0.03818627
Pt       5.61442778       1.62074537      24.58417373        2       0.00570888      -0.00074207       0.05139930
Pt       1.40360636       4.05186440      24.58417384        2      -0.00220280       0.00531536       0.05138979
Pt       4.21082088       4.05186399      24.58417380        2       0.00089776       0.00408926       0.05005920
Pt       7.01803502       4.05186406      24.58417406        2      -0.00000453      -0.00001069       0.05890327
Pt       2.80721280       6.48298341      24.58417369        2       0.00001293       0.00002143       0.05527128
Pt       5.61442796       6.48298324      24.58417387        2      -0.00349559      -0.00457034       0.05141925
Pt       8.42164221       6.48298340      24.58417380        2       0.00306992      -0.00281646       0.05009363
Pt      -0.00020319      -0.00018246      26.92005167        1       0.00097142       0.00129036      -0.02008285
Pt       2.80754720      -0.00209731      26.91590140        1       0.00009247       0.00950371      -0.00465060
Pt       5.61468276      -0.00008880      26.92004687        1      -0.00157701       0.00021819      -0.02001591
Pt       1.40162764       2.43186783      26.91588935        1       0.00818721      -0.00483114      -0.00470681
Pt       4.21246703       2.43244755      26.91588812        1      -0.00829104      -0.00465960      -0.00466394
Pt       7.01800450       2.42959289      26.92323614        1      -0.00140396       0.00737847      -0.03105034
Pt       2.80715902       4.86249644      26.92002507        1       0.00061877      -0.00148622      -0.02016667
Pt       5.61312307       4.86302667      26.92322451        1       0.00707905      -0.00251191      -0.03114304
Pt       8.42297494       4.86297216      26.92322221        1      -0.00567441      -0.00494752      -0.03110373
N        7.01803388       4.05186579      30.88828830        0       0.00001881      -0.00001102      -0.04654758
H        7.84877344       4.50694835      30.48717878        0       0.02452652       0.01338124       0.01894906
H        6.99677879       3.10488295      30.48717855        0      -0.00067820      -0.02793605       0.01894312
H        6.20855202       4.54376470      30.48717747        0      -0.02386567       0.01456065       0.01894206
