40
Lattice="8.421641763931781 0.0 0.0 4.2108208819658905 7.293355709136913 0.0 0.0 0.0 46.87624170604845" Properties=species:S:1:pos:R:3:tags:I:1:forces:R:3 charge=0 spin=0 energy=-206.42411304434899 free_energy=-206.42411304434899 stress="0.010515115223824978 -2.609823468446848e-09 -2.7941220892557794e-08 -2.609823468446848e-09 0.010515188798308372 5.744373510196965e-08 -2.7941220892557794e-08 5.744373510196965e-08 -1.8704622561926953e-05" pbc="T T T"
Pt      -0.00000003       0.00000022      19.95723434        4      -0.00075496      -0.00021074       0.01857531
Pt       2.80721396      -0.00000018      19.95723452        4      -0.00017612       0.00001210       0.01787077
Pt       5.61442778      -0.00000004      19.95723454        4       0.00055608      -0.00055171       0.01856318
Pt       1.40360719       2.43111838      19.95723440        4       0.00009504       0.00014461       0.01787822
Pt       4.21082079       2.43111832      19.95723449        4       0.00008016      -0.00015226       0.01787919
Pt       7.01803484       2.43111842      19.95723441        4      -0.00002221       0.00032155       0.01875652
Pt       2.80721406       4.86223725      19.95723409        4       0.00020260       0.00075981       0.01857033
Pt       5.61442803       4.86223733      19.95723425        4       0.00028818      -0.00014468       0.01875620
Pt       8.42164141       4.86223723      19.95723442        4      -0.00027024      -0.00018097       0.01874210
Pt       1.40360730       0.81037260      22.29206788        3      -0.00009867      -0.00016242      -0.05198040
Pt       4.21082126       0.81037254      22.29206791        3       0.00018244       0.00000690      -0.05198595
Pt       7.01803479       0.81037259      22.29206783        3       0.00047442       0.00076042      -0.05115817
Pt       2.80721452       3.24149125      22.29206775        3      -0.00010134       0.00017233      -0.05199696
Pt       5.61442760       3.24149123      22.29206789        3       0.00032284      -0.00024079      -0.05170373
Pt       8.42164156       3.24149116      22.29206803        3       0.00005929       0.00040926      -0.05170424
Pt       4.21082093       5.67260998      22.29206800        3       0.00041593      -0.00078325      -0.05117428
Pt       7.01803487       5.67261039      22.29206775        3      -0.00038633      -0.00015471      -0.05170756
Pt       9.82524824       5.67261062      22.29206803        3      -0.00088995       0.00002514      -0.05118092
Pt      -0.00000058       1.62074570      24.58417378        2      -0.00589267      -0.00016114       0.04310905
Pt       2.80721444       1.62074548      24.58417392        2      -0.00000195       0.00000738       0.03607517
Pt       5.61442778       1.62074537      24.58417373        2       0.00759609       0.00013334       0.04398439
Pt       1.40360636       4.05186440      24.58417384        2      -0.00389260       0.00653721       0.04400862
Pt       4.21082088       4.05186399      24.58417380        2       0.00279588       0.00522386       0.04309786
Pt       7.01803502       4.05186406      24.58417406        2      -0.00000311       0.00000784       0.05909346
Pt       2.80721280       6.48298341      24.58417369        2       0.00000792       0.00000816       0.05539632
Pt       5.61442796       6.48298324      24.58417387        2      -0.00369359      -0.00665374       0.04400429
Pt       8.42164221       6.48298340      24.58417380        2       0.00309909      -0.00504012       0.04310855
Pt       0.00181625       0.00083006      26.91818849        1      -0.01125396      -0.00550660      -0.01237297
Pt       2.80780418      -0.00373680      26.91430722        1      -0.00134328       0.02057580       0.00394910
Pt       5.61280201       0.00116257      26.91818944        1       0.01040363      -0.00698128      -0.01232953
Pt       1.40007215       2.43247943      26.91430400        1       0.01850612      -0.00914744       0.00385024
Pt       4.21376348       2.43350257      26.91430511        1      -0.01716827      -0.01145692       0.00387134
Pt       7.01795884       2.42894149      26.92336055        1      -0.00149710       0.00990907      -0.03195757
Pt       2.80702068       4.86025303      26.91818440        1       0.00086109       0.01247141      -0.01252210
Pt       5.61257668       4.86339576      26.92335996        1       0.00930994      -0.00367870      -0.03206726
Pt       8.42356610       4.86326620      26.92335972        1      -0.00781196      -0.00627518      -0.03201916
N        7.01803341       4.05185864      30.84217758        0      -0.00000641       0.00001098      -0.02911171
H        6.20055118       3.57171999      30.44362868        0      -0.01984808      -0.01181462       0.01260963
H        7.01096126       4.99989018      30.44363247        0      -0.00030466       0.02308721       0.01261839
H        7.84258787       3.58396941      30.44362833        0       0.02016093      -0.01128699       0.01260431
