40
Lattice="8.421641763931781 0.0 0.0 4.2108208819658905 7.293355709136913 0.0 0.0 0.0 46.87624170604845" Properties=species:S:1:pos:R:3:tags:I:1:forces:R:3 charge=0 spin=0 energy=-206.425858268348 free_energy=-206.425858268348 stress="0.010472786612808704 9.14266795604135e-09 1.2834624030233499e-08 9.14266795604135e-09 0.010472837835550308 2.6102837669128576e-09 1.2834624030233499e-08 2.6102837669128576e-09 -0.0001130440941778943" pbc="T T T"
Pt      -0.00000003       0.00000022      19.95723434        4      -0.00064744      -0.00015623       0.01850943
Pt       2.80721396      -0.00000018      19.95723452        4      -0.00018931       0.00015363       0.01783986
Pt       5.61442778      -0.00000004      19.95723454        4       0.00045626      -0.00048362       0.01849628
Pt       1.40360719       2.43111838      19.95723440        4       0.00022474       0.00008690       0.01784412
Pt       4.21082079       2.43111832      19.95723449        4      -0.00003510      -0.00023444       0.01784423
Pt       7.01803484       2.43111842      19.95723441        4      -0.00005945       0.00018470       0.01874982
Pt       2.80721406       4.86223725      19.95723409        4       0.00019500       0.00063907       0.01850519
Pt       5.61442803       4.86223733      19.95723425        4       0.00018649      -0.00004308       0.01875449
Pt       8.42164141       4.86223723      19.95723442        4      -0.00013093      -0.00014383       0.01873983
Pt       1.40360730       0.81037260      22.29206788        3      -0.00045592      -0.00073711      -0.05007836
Pt       4.21082126       0.81037254      22.29206791        3       0.00085837      -0.00001956      -0.05008468
Pt       7.01803479       0.81037259      22.29206783        3       0.00052736       0.00054848      -0.05213081
Pt       2.80721452       3.24149125      22.29206775        3      -0.00041374       0.00076968      -0.05009529
Pt       5.61442760       3.24149123      22.29206789        3       0.00068119      -0.00006449      -0.05230780
Pt       8.42164156       3.24149116      22.29206803        3      -0.00026927       0.00062788      -0.05230922
Pt       4.21082093       5.67260998      22.29206800        3       0.00020892      -0.00072164      -0.05214346
Pt       7.01803487       5.67261039      22.29206775        3      -0.00040904      -0.00055428      -0.05230616
Pt       9.82524824       5.67261062      22.29206803        3      -0.00072798       0.00017406      -0.05215142
Pt      -0.00000058       1.62074570      24.58417378        2       0.00018791      -0.00127777       0.02882137
Pt       2.80721444       1.62074548      24.58417392        2      -0.00000194      -0.00001415       0.02591079
Pt       5.61442778       1.62074537      24.58417373        2       0.00041323      -0.00186911       0.03338674
Pt       1.40360636       4.05186440      24.58417384        2       0.00140331       0.00130019       0.03338735
Pt       4.21082088       4.05186399      24.58417380        2      -0.00118650       0.00048526       0.02880005
Pt       7.01803502       4.05186406      24.58417406        2       0.00000006      -0.00000116       0.03368661
Pt       2.80721280       6.48298341      24.58417369        2       0.00000300      -0.00000048       0.04721130
Pt       5.61442796       6.48298324      24.58417387        2      -0.00181763       0.00054643       0.03340710
Pt       8.42164221       6.48298340      24.58417380        2       0.00099872       0.00076780       0.02884331
Pt       0.00104040       0.00234681      26.91667395        1      -0.00836742      -0.01225491      -0.00466583
Pt       2.80899844      -0.00166646      26.91419811        1      -0.00751009       0.00922077       0.00665889
Pt       5.61186673      -0.00028514      26.91667877        1       0.01481677      -0.00109793      -0.00462874
Pt       1.40128000       2.43039369      26.91418600        1       0.01177570       0.00188729       0.00654653
Pt       4.21136431       2.43348495      26.91418938        1      -0.00426359      -0.01111486       0.00659046
Pt       7.01739938       2.42826728      26.91611687        1      -0.00155118       0.01188060      -0.00297064
Pt       2.80873381       4.86015033      26.91666381        1      -0.00644048       0.01338082      -0.00479541
Pt       5.61228309       4.86420024      26.91611916        1       0.01101991      -0.00458063      -0.00303413
Pt       8.42442010       4.86309927      26.91612064        1      -0.00947369      -0.00728054      -0.00303943
N        7.01800861       4.05178940      30.83772844        0      -0.00002908       0.00000302      -0.03184703
H        6.42538921       3.31061757      30.44044955        0      -0.00023130      -0.00264032       0.01336535
H        6.67234858       4.93582021      30.44102870        0      -0.00216710       0.00154643       0.01334312
H        7.95633701       3.90934702      30.44072257        0       0.00242116       0.00108726       0.01334636
