40
Lattice="8.421641763931781 0.0 0.0 4.2108208819658905 7.293355709136913 0.0 0.0 0.0 46.87624170604845" Properties=species:S:1:pos:R:3:tags:I:1:forces:R:3 charge=0 spin=0 energy=-206.42616344412926 free_energy=-206.42616344412926 stress="0.010511226952075958 -3.868172768761724e-07 -5.90639448461161e-09 -3.868172768761724e-07 0.010511443018913269 -3.7471426139745745e-07 -5.90639448461161e-09 -3.7471426139745745e-07 -1.718033126962837e-05" pbc="T T T"
Pt      -0.00000003       0.00000022      19.95723434        4      -0.00068807      -0.00015249       0.01858810
Pt       2.80721396      -0.00000018      19.95723452        4      -0.00028930      -0.00003210       0.01786331
Pt       5.61442778      -0.00000004      19.95723454        4       0.00047618      -0.00051528       0.01858033
Pt       1.40360719       2.43111838      19.95723440        4       0.00011048       0.00026498       0.01786742
Pt       4.21082079       2.43111832      19.95723449        4       0.00017422      -0.00021694       0.01787487
Pt       7.01803484       2.43111842      19.95723441        4      -0.00004453       0.00012618       0.01875726
Pt       2.80721406       4.86223725      19.95723409        4       0.00022061       0.00067164       0.01858250
Pt       5.61442803       4.86223733      19.95723425        4       0.00012434      -0.00002166       0.01876630
Pt       8.42164141       4.86223723      19.95723442        4      -0.00008807      -0.00009862       0.01875345
Pt       1.40360730       0.81037260      22.29206788        3      -0.00033442      -0.00015451      -0.05110565
Pt       4.21082126       0.81037254      22.29206791        3       0.00029197      -0.00022487      -0.05111450
Pt       7.01803479       0.81037259      22.29206783        3       0.00049505       0.00081137      -0.05144820
Pt       2.80721452       3.24149125      22.29206775        3       0.00000465       0.00040675      -0.05106710
Pt       5.61442760       3.24149123      22.29206789        3       0.00056387      -0.00019638      -0.05234852
Pt       8.42164156       3.24149116      22.29206803        3      -0.00007882       0.00059245      -0.05238776
Pt       4.21082093       5.67260998      22.29206800        3       0.00041996      -0.00080183      -0.05145764
Pt       7.01803487       5.67261039      22.29206775        3      -0.00046595      -0.00034029      -0.05235881
Pt       9.82524824       5.67261062      22.29206803        3      -0.00091995       0.00003299      -0.05148794
Pt      -0.00000058       1.62074570      24.58417378        2      -0.00138246      -0.00231700       0.04509309
Pt       2.80721444       1.62074548      24.58417392        2      -0.00000429      -0.00008119       0.03843213
Pt       5.61442778       1.62074537      24.58417373        2       0.00371660      -0.00136113       0.04557798
Pt       1.40360636       4.05186440      24.58417384        2      -0.00083269       0.00393441       0.04579861
Pt       4.21082088       4.05186399      24.58417380        2      -0.00106403       0.00239375       0.04519740
Pt       7.01803502       4.05186406      24.58417406        2      -0.00003475       0.00007662       0.04547638
Pt       2.80721280       6.48298341      24.58417369        2       0.00001857      -0.00004225       0.05688307
Pt       5.61442796       6.48298324      24.58417387        2      -0.00294464      -0.00279421       0.04583782
Pt       8.42164221       6.48298340      24.58417380        2       0.00258249      -0.00028226       0.04523947
Pt       0.00131440      -0.00056988      26.91951321        1      -0.00722196      -0.00088326      -0.01754482
Pt       2.80746253      -0.00234346      26.91609507        1       0.00033478       0.01351446      -0.00370756
Pt       5.61419287       0.00127267      26.91950269        1       0.00459966      -0.00540151      -0.01749936
Pt       1.40151502       2.43198898      26.91605971        1       0.01159169      -0.00707192      -0.00372868
Pt       4.21268825       2.43241886      26.91605620        1      -0.01192681      -0.00648691      -0.00368678
Pt       7.01869347       2.42974735      26.92037351        1      -0.00344358       0.00156137      -0.01975773
Pt       2.80616788       4.86130350      26.91949118        1       0.00262982       0.00668492      -0.01764832
Pt       5.61301889       4.86224997      26.92052449        1       0.00297069       0.00222286      -0.02015885
Pt       8.42241308       4.86337999      26.92048598        1       0.00044164      -0.00372896      -0.02008731
N        7.01804851       4.04901384      30.84489304        0      -0.00002624       0.00133514      -0.03882207
H        7.48748923       4.87577054      30.45286127        0       0.01902830       0.02928919       0.01632962
H        7.49587029       3.23511052      30.43638888        0       0.01550587      -0.03060907       0.01583925
H        6.07074930       4.04837452      30.44460334        0      -0.03451101      -0.00010450       0.01607920
