40
Lattice="8.421641763931781 0.0 0.0 4.2108208819658905 7.293355709136913 0.0 0.0 0.0 46.87624170604845" Properties=species:S:1:pos:R:3:tags:I:1:forces:R:3 charge=0 spin=0 energy=-206.42835308035973 free_energy=-206.42835308035973 stress="0.010428400710225105 2.474177129840882e-08 -2.6089029603326708e-08 2.474177129840882e-08 0.010428395122289658 -1.1029197111156464e-07 -2.6089029603326708e-08 -1.1029197111156464e-07 -0.00018619842012412846" pbc="T T T"
Pt      -0.00000003       0.00000022      19.95723434        4      -0.00027960       0.00020052       0.01839227
Pt       2.80721396      -0.00000018      19.95723452        4      -0.00022584      -0.00034558       0.01791513
Pt       5.61442778      -0.00000004      19.95723454        4      -0.00003570      -0.00034363       0.01837828
Pt       1.40360719       2.43111838      19.95723440        4      -0.00018791       0.00036650       0.01791238
Pt       4.21082079       2.43111832      19.95723449        4       0.00041482      -0.00001849       0.01791295
Pt       7.01803484       2.43111842      19.95723441        4      -0.00010666      -0.00037766       0.01856201
Pt       2.80721406       4.86223725      19.95723409        4       0.00032003       0.00014343       0.01838396
Pt       5.61442803       4.86223733      19.95723425        4      -0.00027625       0.00027860       0.01856999
Pt       8.42164141       4.86223723      19.95723442        4       0.00037948       0.00009556       0.01855455
Pt       1.40360730       0.81037260      22.29206788        3      -0.00082766      -0.00091338      -0.04912781
Pt       4.21082126       0.81037254      22.29206791        3       0.00119940      -0.00025836      -0.04913186
Pt       7.01803479       0.81037259      22.29206783        3       0.00044880       0.00009682      -0.05318379
Pt       2.80721452       3.24149125      22.29206775        3      -0.00038089       0.00117877      -0.04916454
Pt       5.61442760       3.24149123      22.29206789        3       0.00057440      -0.00036708      -0.05188040
Pt       8.42164156       3.24149116      22.29206803        3       0.00004347       0.00068524      -0.05188216
Pt       4.21082093       5.67260998      22.29206800        3      -0.00013710      -0.00043479      -0.05320649
Pt       7.01803487       5.67261039      22.29206775        3      -0.00061393      -0.00031813      -0.05187217
Pt       9.82524824       5.67261062      22.29206803        3      -0.00029904       0.00032184      -0.05321523
Pt      -0.00000058       1.62074570      24.58417378        2       0.01147445       0.00099948       0.02819906
Pt       2.80721444       1.62074548      24.58417392        2      -0.00000038      -0.00004266       0.03706304
Pt       5.61442778       1.62074537      24.58417373        2      -0.01016537       0.00026765       0.02951626
Pt       1.40360636       4.05186440      24.58417384        2       0.00482489      -0.00894955       0.02943375
Pt       4.21082088       4.05186399      24.58417380        2      -0.00483770      -0.01045751       0.02811685
Pt       7.01803502       4.05186406      24.58417406        2      -0.00000538      -0.00001244      -0.01443755
Pt       2.80721280       6.48298341      24.58417369        2       0.00000504       0.00005301       0.01073972
Pt       5.61442796       6.48298324      24.58417387        2       0.00534084       0.00867572       0.02953484
Pt       8.42164221       6.48298340      24.58417380        2      -0.00664770       0.00945083       0.02820162
Pt      -0.00369151      -0.00134507      26.91197123        1       0.02868741       0.01379353       0.01401065
Pt       2.80746231       0.00140388      26.91918590        1       0.00012348       0.00202917      -0.01728371
Pt       5.61743198      -0.00252614      26.91197595        1      -0.02623815       0.01801367       0.01400628
Pt       1.40470138       2.43019384      26.91914073        1       0.00167237      -0.00109926      -0.01711365
Pt       4.20947510       2.43062974      26.91914773        1      -0.00178236      -0.00091412      -0.01714529
Pt       7.01751280       2.43467460      26.90944104        1       0.00041769      -0.03281560       0.03167937
Pt       2.80789662       4.86611310      26.91192312        1      -0.00245167      -0.03177645       0.01407598
Pt       5.61777123       4.86091286      26.90943053        1      -0.02865867       0.01603995       0.03157663
Pt       8.41881931       4.86001121      26.90943050        1       0.02822598       0.01675521       0.03159654
N        7.01803469       4.05186414      30.93381430        0       0.00019412      -0.00000317       0.00347658
H        7.00701948       3.10281363      30.53815305        0      -0.00017565      -0.01334021       0.00094637
H        6.20164139       4.53592977      30.53815823        0      -0.01156430       0.00686063       0.00090074
H        7.84544579       4.51685096      30.53815137        0       0.01155145       0.00648215       0.00098859
