40
Lattice="8.421641763931781 0.0 0.0 4.2108208819658905 7.293355709136913 0.0 0.0 0.0 46.87624170604845" Properties=species:S:1:pos:R:3:tags:I:1:forces:R:3 charge=0 spin=0 energy=-206.42705608328941 free_energy=-206.42705608328941 stress="0.010526353493332863 -5.943623477833171e-07 -7.971422633090697e-08 -5.943623477833171e-07 0.010526174679398537 -9.532653280075465e-07 -7.971422633090697e-08 -9.532653280075465e-07 -1.9414177586440928e-05" pbc="T T T"
Pt      -0.00000003       0.00000022      19.95723434        4      -0.00050332      -0.00002990       0.01852499
Pt       2.80721396      -0.00000018      19.95723452        4      -0.00034199      -0.00018049       0.01804009
Pt       5.61442778      -0.00000004      19.95723454        4       0.00027202      -0.00042261       0.01852188
Pt       1.40360719       2.43111838      19.95723440        4       0.00001306       0.00037816       0.01804310
Pt       4.21082079       2.43111832      19.95723449        4       0.00032255      -0.00018738       0.01805137
Pt       7.01803484       2.43111842      19.95723441        4       0.00001679      -0.00012429       0.01862944
Pt       2.80721406       4.86223725      19.95723409        4       0.00024023       0.00044607       0.01852117
Pt       5.61442803       4.86223733      19.95723425        4      -0.00012710       0.00004780       0.01865393
Pt       8.42164141       4.86223723      19.95723442        4       0.00009842       0.00007585       0.01864280
Pt       1.40360730       0.81037260      22.29206788        3      -0.00078591      -0.00063231      -0.04951669
Pt       4.21082126       0.81037254      22.29206791        3       0.00092973      -0.00038591      -0.04953717
Pt       7.01803479       0.81037259      22.29206783        3       0.00057079       0.00077702      -0.05221455
Pt       2.80721452       3.24149125      22.29206775        3      -0.00019409       0.00103252      -0.04950934
Pt       5.61442760       3.24149123      22.29206789        3       0.00104346       0.00013142      -0.05343236
Pt       8.42164156       3.24149116      22.29206803        3      -0.00061684       0.00082243      -0.05350254
Pt       4.21082093       5.67260998      22.29206800        3       0.00033174      -0.00084947      -0.05220296
Pt       7.01803487       5.67261039      22.29206775        3      -0.00040328      -0.00091954      -0.05341270
Pt       9.82524824       5.67261062      22.29206803        3      -0.00091661       0.00011379      -0.05225754
Pt      -0.00000058       1.62074570      24.58417378        2       0.00639334      -0.00814153       0.04657381
Pt       2.80721444       1.62074548      24.58417392        2       0.00000323      -0.00012652       0.04120220
Pt       5.61442778       1.62074537      24.58417373        2      -0.00452330      -0.00711021       0.04643391
Pt       1.40360636       4.05186440      24.58417384        2       0.00820809      -0.00019075       0.04683177
Pt       4.21082088       4.05186399      24.58417380        2      -0.00982218      -0.00129552       0.04686485
Pt       7.01803502       4.05186406      24.58417406        2      -0.00009387       0.00022558       0.02003586
Pt       2.80721280       6.48298341      24.58417369        2       0.00005411      -0.00005657       0.06381886
Pt       5.61442796       6.48298324      24.58417387        2      -0.00387438       0.00714298       0.04700562
Pt       8.42164221       6.48298340      24.58417380        2       0.00373224       0.00928869       0.04691480
Pt      -0.00009031      -0.00145014      26.92219693        1      -0.00049480       0.00346155      -0.02792427
Pt       2.80777683      -0.00002117      26.91853627        1      -0.00095568       0.00313125      -0.01408915
Pt       5.61569478       0.00052635      26.92214601        1      -0.00300255      -0.00250571      -0.02772584
Pt       1.40337984       2.43057849      26.91845996        1       0.00319974      -0.00071519      -0.01393383
Pt       4.21053759       2.43156059      26.91845667        1      -0.00226050      -0.00243753      -0.01389892
Pt       7.01821816       2.43167828      26.91421200        1      -0.00156668      -0.01370907       0.00800167
Pt       2.80609411       4.86299644      26.92213302        1       0.00346925      -0.00127644      -0.02767473
Pt       5.61492131       4.86175132      26.91452176        1      -0.01121845       0.00814150       0.00701820
Pt       8.42097747       4.86202519      26.91443424        1       0.01277255       0.00557502       0.00722012
N        7.01799979       4.04663393      31.00072984        0      -0.00007830       0.00155383       0.03123859
H        7.49721889       4.87350279      30.62220944        0       0.00876683       0.01027194      -0.01083129
H        7.48855262       3.22880717      30.59277801        0       0.00364815      -0.01113462      -0.01179721
H        6.06831581       4.05897922      30.60752438        0      -0.01230650      -0.00018585      -0.01132796
