40
Lattice="8.421641763931781 0.0 0.0 4.2108208819658905 7.293355709136913 0.0 0.0 0.0 46.87624170604845" Properties=species:S:1:pos:R:3:tags:I:1:forces:R:3 charge=0 spin=0 energy=-206.4244563671029 free_energy=-206.4244563671029 stress="0.0104904156178236 8.691587005671408e-09 -2.6512492201646864e-10 8.691587005671408e-09 0.010490423999726772 1.2011632577468845e-08 -2.6512492201646864e-10 1.2011632577468845e-08 -5.0215207011206076e-05" pbc="T T T"
Pt      -0.00000003       0.00000022      19.95723434        4      -0.00069242      -0.00013044       0.01858309
Pt       2.80721396      -0.00000018      19.95723452        4      -0.00022278       0.00003816       0.01787913
Pt       5.61442778      -0.00000004      19.95723454        4       0.00045639      -0.00053640       0.01857026
Pt       1.40360719       2.43111838      19.95723440        4       0.00014167       0.00017173       0.01788381
Pt       4.21082079       2.43111832      19.95723449        4       0.00008087      -0.00020628       0.01788437
Pt       7.01803484       2.43111842      19.95723441        4      -0.00002941       0.00020461       0.01870678
Pt       2.80721406       4.86223725      19.95723409        4       0.00024056       0.00066589       0.01857934
Pt       5.61442803       4.86223733      19.95723425        4       0.00019005      -0.00007880       0.01871064
Pt       8.42164141       4.86223723      19.95723442        4      -0.00016362      -0.00012885       0.01869598
Pt       1.40360730       0.81037260      22.29206788        3      -0.00051262      -0.00054716      -0.05067454
Pt       4.21082126       0.81037254      22.29206791        3       0.00072205      -0.00016915      -0.05068183
Pt       7.01803479       0.81037259      22.29206783        3       0.00054533       0.00056414      -0.05207489
Pt       2.80721452       3.24149125      22.29206775        3      -0.00021967       0.00072216      -0.05069545
Pt       5.61442760       3.24149123      22.29206789        3       0.00060265      -0.00008469      -0.05195858
Pt       8.42164156       3.24149116      22.29206803        3      -0.00021388       0.00056871      -0.05195858
Pt       4.21082093       5.67260998      22.29206800        3       0.00021680      -0.00074849      -0.05209317
Pt       7.01803487       5.67261039      22.29206775        3      -0.00038471      -0.00047832      -0.05196139
Pt       9.82524824       5.67261062      22.29206803        3      -0.00075472       0.00017935      -0.05210263
Pt      -0.00000058       1.62074570      24.58417378        2       0.00020029      -0.00246377       0.03948503
Pt       2.80721444       1.62074548      24.58417392        2      -0.00000483      -0.00001230       0.03809639
Pt       5.61442778       1.62074537      24.58417373        2       0.00146549      -0.00273031       0.04055922
Pt       1.40360636       4.05186440      24.58417384        2       0.00162942       0.00262273       0.04051746
Pt       4.21082088       4.05186399      24.58417380        2      -0.00222332       0.00105465       0.03941175
Pt       7.01803502       4.05186406      24.58417406        2      -0.00000316      -0.00001263       0.03618313
Pt       2.80721280       6.48298341      24.58417369        2       0.00000721       0.00002291       0.05780957
Pt       5.61442796       6.48298324      24.58417387        2      -0.00309450       0.00010139       0.04057018
Pt       8.42164221       6.48298340      24.58417380        2       0.00201906       0.00140419       0.03948397
Pt       0.00171473       0.00120051      26.91879285        1      -0.01206105      -0.00770542      -0.01561117
Pt       2.80778207      -0.00262900      26.91604040        1      -0.00140870       0.01774526      -0.00220351
Pt       5.61253159       0.00088785      26.91879420        1       0.01269931      -0.00657351      -0.01556181
Pt       1.40104393       2.43193365      26.91602716        1       0.01611190      -0.00765422      -0.00230394
Pt       4.21281265       2.43292474      26.91602787        1      -0.01468077      -0.01011071      -0.00226159
Pt       7.01776100       2.42985370      26.91800154        1      -0.00087121      -0.00115131      -0.00940640
Pt       2.80739259       4.86014532      26.91876004        1      -0.00063862       0.01430887      -0.01564938
Pt       5.61346678       4.86310954      26.91798537        1      -0.00058938       0.00131183      -0.00941068
Pt       8.42287637       4.86262999      26.91798574        1       0.00143978      -0.00016075      -0.00939991
N        7.01803554       4.05185943      30.85124382        0      -0.00000234      -0.00003102      -0.03003244
H        7.00615562       4.99904061      30.45127116        0      -0.00066542       0.03695295       0.01280247
H        7.84425414       3.58856269      30.45125314        0       0.03231849      -0.01788854       0.01281358
H        6.20369521       3.56798661      30.45125587        0      -0.03164991      -0.01903655       0.01281557
