40
Lattice="8.421641763931781 0.0 0.0 4.2108208819658905 7.293355709136913 0.0 0.0 0.0 46.87624170604845" Properties=species:S:1:pos:R:3:tags:I:1:forces:R:3 charge=0 spin=0 energy=-206.42591358145836 free_energy=-206.42591358145836 stress="0.010472305119037628 -5.525829394059656e-08 -4.728521574293154e-09 -5.525829394059656e-08 0.010472376830875874 -3.439535589677689e-08 -4.728521574293154e-09 -3.439535589677689e-08 -0.00011260758765274659" pbc="T T T"
Pt      -0.00000003       0.00000022      19.95723434        4      -0.00071287      -0.00002945       0.01853625
Pt       2.80721396      -0.00000018      19.95723452        4      -0.00023672       0.00014234       0.01781751
Pt       5.61442778      -0.00000004      19.95723454        4       0.00038053      -0.00060247       0.01852387
Pt       1.40360719       2.43111838      19.95723440        4       0.00023763       0.00013473       0.01782132
Pt       4.21082079       2.43111832      19.95723449        4      -0.00000162      -0.00026691       0.01782292
Pt       7.01803484       2.43111842      19.95723441        4       0.00002301       0.00018699       0.01872567
Pt       2.80721406       4.86223725      19.95723409        4       0.00033710       0.00063459       0.01853210
Pt       5.61442803       4.86223733      19.95723425        4       0.00014608      -0.00011316       0.01873017
Pt       8.42164141       4.86223723      19.95723442        4      -0.00017293      -0.00007226       0.01871551
Pt       1.40360730       0.81037260      22.29206788        3      -0.00068318      -0.00033854      -0.05023879
Pt       4.21082126       0.81037254      22.29206791        3       0.00063285      -0.00041268      -0.05024640
Pt       7.01803479       0.81037259      22.29206783        3       0.00055102       0.00063042      -0.05212090
Pt       2.80721452       3.24149125      22.29206775        3       0.00003936       0.00077737      -0.05025131
Pt       5.61442760       3.24149123      22.29206789        3       0.00065087      -0.00005975      -0.05214100
Pt       8.42164156       3.24149116      22.29206803        3      -0.00025169       0.00060611      -0.05214421
Pt       4.21082093       5.67260998      22.29206800        3       0.00026389      -0.00077341      -0.05213470
Pt       7.01803487       5.67261039      22.29206775        3      -0.00039231      -0.00052082      -0.05213979
Pt       9.82524824       5.67261062      22.29206803        3      -0.00080543       0.00015877      -0.05214460
Pt      -0.00000058       1.62074570      24.58417378        2       0.00103685      -0.00146127       0.03289265
Pt       2.80721444       1.62074548      24.58417392        2      -0.00000509      -0.00003171       0.02685878
Pt       5.61442778       1.62074537      24.58417373        2       0.00186536      -0.00100042       0.02923338
Pt       1.40360636       4.05186440      24.58417384        2      -0.00009394       0.00210484       0.02924997
Pt       4.21082088       4.05186399      24.58417380        2      -0.00174646      -0.00017650       0.03286995
Pt       7.01803502       4.05186406      24.58417406        2      -0.00000726      -0.00001341       0.03403360
Pt       2.80721280       6.48298341      24.58417369        2       0.00000572      -0.00001421       0.04670185
Pt       5.61442796       6.48298324      24.58417387        2      -0.00178075      -0.00117710       0.02928240
Pt       8.42164221       6.48298340      24.58417380        2       0.00071360       0.00156622       0.03290962
Pt       0.00255345      -0.00042443      26.91641864        1      -0.01537676      -0.00083156      -0.00409778
Pt       2.80622862      -0.00171083      26.91422986        1       0.00692072       0.00911944       0.00654962
Pt       5.61349050       0.00238125      26.91642001        1       0.00842539      -0.01284886      -0.00405086
Pt       1.40263972       2.43278196      26.91421642        1       0.00446220      -0.01055743       0.00645698
Pt       4.21276691       2.43107979      26.91421955        1      -0.01137853       0.00145807       0.00648047
Pt       7.01808879       2.42826193      26.91629702        1       0.00092044       0.01228326      -0.00365849
Pt       2.80559256       4.86019358      26.91640552        1       0.00695463       0.01373855      -0.00421275
Pt       5.61195270       4.86357210      26.91630780        1       0.01011652      -0.00691575      -0.00374745
Pt       8.42405724       4.86366982      26.91630432        1      -0.01104323      -0.00532072      -0.00371649
N        7.01809833       4.05167627      30.84175259        0      -0.00001771       0.00015988      -0.03301721
H        6.08100335       3.90103518      30.44477617        0      -0.00151866       0.00114961       0.01377383
H        7.35575629       4.93909245      30.44563683        0       0.00204832       0.00067727       0.01377822
H        7.61739307       3.31608189      30.44403206        0      -0.00050697      -0.00199020       0.01376606
