40
Lattice="8.421641763931781 0.0 0.0 4.2108208819658905 7.293355709136913 0.0 0.0 0.0 46.87624170604845" Properties=species:S:1:pos:R:3:tags:I:1:forces:R:3 charge=0 spin=0 energy=-206.4270904155648 free_energy=-206.4270904155648 stress="0.01052508782595396 -5.757026997343928e-07 -6.701400678821301e-08 -5.757026997343928e-07 0.010525351390242577 8.026215141399007e-07 -6.701400678821301e-08 8.026215141399007e-07 -1.9201377654098906e-05" pbc="T T T"
Pt      -0.00000003       0.00000022      19.95723434        4      -0.00052841       0.00003176       0.01849066
Pt       2.80721396      -0.00000018      19.95723452        4      -0.00017364      -0.00017390       0.01808877
Pt       5.61442778      -0.00000004      19.95723454        4       0.00023847      -0.00047019       0.01847639
Pt       1.40360719       2.43111838      19.95723440        4      -0.00007094       0.00022796       0.01808619
Pt       4.21082079       2.43111832      19.95723449        4       0.00023665      -0.00005232       0.01808723
Pt       7.01803484       2.43111842      19.95723441        4       0.00002878      -0.00014129       0.01865008
Pt       2.80721406       4.86223725      19.95723409        4       0.00029762       0.00044860       0.01848979
Pt       5.61442803       4.86223733      19.95723425        4      -0.00014204       0.00004307       0.01865065
Pt       8.42164141       4.86223723      19.95723442        4       0.00010323       0.00009730       0.01863981
Pt       1.40360730       0.81037260      22.29206788        3      -0.00069702      -0.00097095      -0.04927320
Pt       4.21082126       0.81037254      22.29206791        3       0.00119725      -0.00008419      -0.04929363
Pt       7.01803479       0.81037259      22.29206783        3       0.00046802       0.00071500      -0.05227202
Pt       2.80721452       3.24149125      22.29206775        3      -0.00053425       0.00109452      -0.04933193
Pt       5.61442760       3.24149123      22.29206789        3       0.00096795       0.00020495      -0.05363211
Pt       8.42164156       3.24149116      22.29206803        3      -0.00063422       0.00076217      -0.05366370
Pt       4.21082093       5.67260998      22.29206800        3       0.00038101      -0.00077344      -0.05227147
Pt       7.01803487       5.67261039      22.29206775        3      -0.00032367      -0.00094880      -0.05365235
Pt       9.82524824       5.67261062      22.29206803        3      -0.00086878       0.00005802      -0.05231163
Pt      -0.00000058       1.62074570      24.58417378        2       0.00621919      -0.00707651       0.04705190
Pt       2.80721444       1.62074548      24.58417392        2      -0.00000334      -0.00002416       0.03994258
Pt       5.61442778       1.62074537      24.58417373        2      -0.00501432      -0.00816701       0.04732056
Pt       1.40360636       4.05186440      24.58417384        2       0.00975265      -0.00038452       0.04716563
Pt       4.21082088       4.05186399      24.58417380        2      -0.00929218      -0.00190820       0.04678350
Pt       7.01803502       4.05186406      24.58417406        2      -0.00003711      -0.00010210       0.02096461
Pt       2.80721280       6.48298341      24.58417369        2       0.00007588       0.00005835       0.06394973
Pt       5.61442796       6.48298324      24.58417387        2      -0.00457208       0.00860549       0.04730678
Pt       8.42164221       6.48298340      24.58417380        2       0.00295352       0.00905300       0.04683984
Pt      -0.00126612       0.00053514      26.92243691        1       0.00382504      -0.00132527      -0.02871273
Pt       2.80750851       0.00019898      26.91854399        1       0.00036743       0.00172905      -0.01395683
Pt       5.61462530      -0.00134369      26.92238867        1      -0.00071593       0.00408137      -0.02846973
Pt       1.40364581       2.43073648      26.91852184        1       0.00135310      -0.00111942      -0.01399468
Pt       4.21051990       2.43126786      26.91849408        1      -0.00175767      -0.00056311      -0.01384576
Pt       7.01685755       2.43156021      26.91437430        1       0.00276833      -0.01223292       0.00721561
Pt       2.80830100       4.86305565      26.92237301        1      -0.00312783      -0.00257416      -0.02861928
Pt       5.61537302       4.86308388      26.91427103        1      -0.01188341       0.00360678       0.00757636
Pt       8.42190695       4.86098381      26.91424356        1       0.00912080       0.00853802       0.00768405
N        7.01798917       4.05451434      31.00000997        0       0.00005201      -0.00100930       0.03345216
H        7.96746660       4.06287919      30.60641349        0       0.01635564       0.00356345      -0.01187524
H        6.55385105       3.22271005      30.61380788        0      -0.00753143      -0.01560131      -0.01154490
H        6.53277411       4.86712281      30.59906363        0      -0.00885424       0.01278444      -0.01219163
