40
Lattice="8.421641763931781 0.0 0.0 4.2108208819658905 7.293355709136913 0.0 0.0 0.0 46.87624170604845" Properties=species:S:1:pos:R:3:tags:I:1:forces:R:3 charge=0 spin=0 energy=-206.4280440898812 free_energy=-206.4280440898812 stress="0.010447493754327297 -6.131877228199301e-09 -1.3403538279277427e-09 -6.131877228199301e-09 0.010447492823004723 -4.775930761979907e-09 -1.3403538279277427e-09 -4.775930761979907e-09 -0.00014922583068255335" pbc="T T T"
Pt      -0.00000003       0.00000022      19.95723434        4      -0.00073529      -0.00012109       0.01849357
Pt       2.80721396      -0.00000018      19.95723452        4      -0.00012695       0.00012475       0.01775112
Pt       5.61442778      -0.00000004      19.95723454        4       0.00046901      -0.00057969       0.01848025
Pt       1.40360719       2.43111838      19.95723440        4       0.00016853       0.00004634       0.01775722
Pt       4.21082079       2.43111832      19.95723449        4      -0.00004114      -0.00016608       0.01775746
Pt       7.01803484       2.43111842      19.95723441        4      -0.00004107       0.00043285       0.01875635
Pt       2.80721406       4.86223725      19.95723409        4       0.00027065       0.00069775       0.01848606
Pt       5.61442803       4.86223733      19.95723425        4       0.00039379      -0.00018299       0.01875569
Pt       8.42164141       4.86223723      19.95723442        4      -0.00035627      -0.00025319       0.01874089
Pt       1.40360730       0.81037260      22.29206788        3      -0.00005352      -0.00011407      -0.05116731
Pt       4.21082126       0.81037254      22.29206791        3       0.00011689       0.00001000      -0.05117308
Pt       7.01803479       0.81037259      22.29206783        3       0.00048211       0.00053733      -0.05164673
Pt       2.80721452       3.24149125      22.29206775        3      -0.00007186       0.00010768      -0.05118817
Pt       5.61442760       3.24149123      22.29206789        3       0.00025429      -0.00027362      -0.05167843
Pt       8.42164156       3.24149116      22.29206803        3       0.00012538       0.00036410      -0.05167944
Pt       4.21082093       5.67260998      22.29206800        3       0.00022499      -0.00068414      -0.05166676
Pt       7.01803487       5.67261039      22.29206775        3      -0.00037614      -0.00008206      -0.05168243
Pt       9.82524824       5.67261062      22.29206803        3      -0.00070128       0.00013570      -0.05167336
Pt      -0.00000058       1.62074570      24.58417378        2      -0.00377624       0.00227497       0.02511055
Pt       2.80721444       1.62074548      24.58417392        2       0.00000042      -0.00000489       0.02101018
Pt       5.61442778       1.62074537      24.58417373        2       0.00522185       0.00246706       0.02570700
Pt       1.40360636       4.05186440      24.58417384        2      -0.00473927       0.00329931       0.02568412
Pt       4.21082088       4.05186399      24.58417380        2       0.00385658       0.00214873       0.02504994
Pt       7.01803502       4.05186406      24.58417406        2      -0.00000119      -0.00001376       0.04141157
Pt       2.80721280       6.48298341      24.58417369        2       0.00000295       0.00002023       0.04170719
Pt       5.61442796       6.48298324      24.58417387        2      -0.00048431      -0.00576864       0.02570785
Pt       8.42164221       6.48298340      24.58417380        2      -0.00008498      -0.00442586       0.02510453
Pt       0.00369901       0.00203479      26.91348581        1      -0.02532704      -0.01313606       0.00666737
Pt       2.80750810      -0.00263409      26.91251625        1       0.00063320       0.01122429       0.01411879
Pt       5.61081671       0.00218923      26.91348780        1       0.02405199      -0.01535442       0.00671277
Pt       1.40117787       2.43218025      26.91250948        1       0.00943435      -0.00617745       0.01402227
Pt       4.21295462       2.43269152      26.91251151        1      -0.01007766      -0.00506595       0.01405728
Pt       7.01761349       2.42810829      26.91832672        1       0.00056990       0.01566976      -0.01012268
Pt       2.80712336       4.85801666      26.91346473        1       0.00128065       0.02851792       0.00659010
Pt       5.61202990       4.86410676      26.91831218        1       0.01325649      -0.00832213      -0.01015937
Pt       8.42445891       4.86337824      26.91831348        1      -0.01382524      -0.00734832      -0.01015186
N        7.01803497       4.05185863      30.84808244        0      -0.00004481       0.00006571      -0.01005167
H        7.84763766       4.51300295      30.45228800        0       0.01306434       0.00714975       0.00679710
H        7.00259203       3.10283685      30.45227225        0      -0.00033481      -0.01492956       0.00678100
H        6.20387393       4.53975035      30.45228573        0      -0.01267902       0.00770954       0.00682301
