40
Lattice="8.421641763931781 0.0 0.0 4.2108208819658905 7.293355709136913 0.0 0.0 0.0 46.87624170604845" Properties=species:S:1:pos:R:3:tags:I:1:forces:R:3 charge=0 spin=0 energy=-206.4261138530648 free_energy=-206.4261138530648 stress="0.010513589717447758 -5.0652896987912754e-08 1.5819120235960327e-08 -5.0652896987912754e-08 0.010513725690543652 -1.324078056086364e-07 1.5819120235960327e-08 -1.324078056086364e-07 -1.4131276657280978e-05" pbc="T T T"
Pt      -0.00000003       0.00000022      19.95723434        4      -0.00069724      -0.00011480       0.01855544
Pt       2.80721396      -0.00000018      19.95723452        4      -0.00009010      -0.00004957       0.01789236
Pt       5.61442778      -0.00000004      19.95723454        4       0.00044495      -0.00054628       0.01854299
Pt       1.40360719       2.43111838      19.95723440        4      -0.00000072       0.00010625       0.01790023
Pt       4.21082079       2.43111832      19.95723449        4       0.00009373      -0.00004759       0.01789842
Pt       7.01803484       2.43111842      19.95723441        4      -0.00002043       0.00012038       0.01877955
Pt       2.80721406       4.86223725      19.95723409        4       0.00025491       0.00066046       0.01855014
Pt       5.61442803       4.86223733      19.95723425        4       0.00011237      -0.00004209       0.01878602
Pt       8.42164141       4.86223723      19.95723442        4      -0.00009298      -0.00007725       0.01876954
Pt       1.40360730       0.81037260      22.29206788        3      -0.00014134      -0.00057512      -0.05098867
Pt       4.21082126       0.81037254      22.29206791        3       0.00055428       0.00016248      -0.05099217
Pt       7.01803479       0.81037259      22.29206783        3       0.00042885       0.00076968      -0.05145203
Pt       2.80721452       3.24149125      22.29206775        3      -0.00041503       0.00042721      -0.05098220
Pt       5.61442760       3.24149123      22.29206789        3       0.00046684      -0.00017154      -0.05251293
Pt       8.42164156       3.24149116      22.29206803        3      -0.00006871       0.00049774      -0.05250192
Pt       4.21082093       5.67260998      22.29206800        3       0.00044347      -0.00073232      -0.05147258
Pt       7.01803487       5.67261039      22.29206775        3      -0.00039423      -0.00029996      -0.05250565
Pt       9.82524824       5.67261062      22.29206803        3      -0.00085568      -0.00002305      -0.05147529
Pt      -0.00000058       1.62074570      24.58417378        2      -0.00206615      -0.00160023       0.04535213
Pt       2.80721444       1.62074548      24.58417392        2      -0.00000881      -0.00004217       0.03742259
Pt       5.61442778       1.62074537      24.58417373        2       0.00302374      -0.00222148       0.04689473
Pt       1.40360636       4.05186440      24.58417384        2       0.00030715       0.00375418       0.04697016
Pt       4.21082088       4.05186399      24.58417380        2      -0.00026445       0.00260669       0.04538346
Pt       7.01803502       4.05186406      24.58417406        2      -0.00000009       0.00004004       0.04611407
Pt       2.80721280       6.48298341      24.58417369        2      -0.00000613      -0.00001068       0.05725621
Pt       5.61442796       6.48298324      24.58417387        2      -0.00339477      -0.00161861       0.04698726
Pt       8.42164221       6.48298340      24.58417380        2       0.00236380      -0.00111116       0.04544845
Pt       0.00021011       0.00133535      26.91974444        1      -0.00370483      -0.00526029      -0.01837578
Pt       2.80799414      -0.00219779      26.91608950        1      -0.00198351       0.01292977      -0.00373625
Pt       5.61312014      -0.00053978      26.91974854        1       0.00651421      -0.00038884      -0.01831288
Pt       1.40132872       2.43149940      26.91606462        1       0.01221808      -0.00476189      -0.00381685
Pt       4.21230186       2.43286068      26.91606986        1      -0.01023588      -0.00818714      -0.00375048
Pt       7.01694174       2.42991448      26.92055420        1       0.00180181       0.00055448      -0.02052730
Pt       2.80828891       4.86134270      26.91972880        1      -0.00279403       0.00584444      -0.01847194
Pt       5.61395755       4.86373695      26.92060857        1      -0.00046710      -0.00183197      -0.02069644
Pt       8.42317716       4.86185603      26.92061502        1      -0.00132176       0.00127749      -0.02072390
N        7.01804614       4.05058229      30.84194622        0      -0.00002896       0.00034922      -0.03928322
H        6.54100417       4.87072555      30.44520227        0      -0.01872145       0.02889318       0.01641352
H        7.96525884       4.05632242      30.44148793        0       0.03458617       0.00171689       0.01635229
H        6.54784861       3.23011202      30.43777870        0      -0.01583986      -0.03099678       0.01630884
