40
Lattice="8.421641763931781 0.0 0.0 4.2108208819658905 7.293355709136913 0.0 0.0 0.0 46.87624170604845" Properties=species:S:1:pos:R:3:tags:I:1:forces:R:3 charge=0 spin=0 energy=-206.42418170889977 free_energy=-206.42418170889977 stress="0.010427338071167469 -1.121899586564723e-07 1.1901162721983383e-08 -1.121899586564723e-07 0.010427631437778473 4.575982615051544e-08 1.1901162721983383e-08 4.575982615051544e-08 -0.00018112816906068474" pbc="T T T"
Pt      -0.00000003       0.00000022      19.95723434        4      -0.00037159       0.00024128       0.01847436
Pt       2.80721396      -0.00000018      19.95723452        4      -0.00002696      -0.00045597       0.01781768
Pt       5.61442778      -0.00000004      19.95723454        4      -0.00002618      -0.00044528       0.01846204
Pt       1.40360719       2.43111838      19.95723440        4      -0.00038232       0.00025094       0.01781766
Pt       4.21082079       2.43111832      19.95723449        4       0.00041112       0.00021040       0.01781993
Pt       7.01803484       2.43111842      19.95723441        4      -0.00014162      -0.00006921       0.01857408
Pt       2.80721406       4.86223725      19.95723409        4       0.00040346       0.00020530       0.01846369
Pt       5.61442803       4.86223733      19.95723425        4       0.00000952       0.00015634       0.01857561
Pt       8.42164141       4.86223723      19.95723442        4       0.00012935      -0.00008877       0.01855972
Pt       1.40360730       0.81037260      22.29206788        3      -0.00049852      -0.00053754      -0.05200984
Pt       4.21082126       0.81037254      22.29206791        3       0.00071361      -0.00015686      -0.05201225
Pt       7.01803479       0.81037259      22.29206783        3       0.00038464      -0.00009260      -0.05302056
Pt       2.80721452       3.24149125      22.29206775        3      -0.00022157       0.00071361      -0.05203963
Pt       5.61442760       3.24149123      22.29206789        3      -0.00040802      -0.00081692      -0.04915624
Pt       8.42164156       3.24149116      22.29206803        3       0.00092874       0.00006080      -0.04915810
Pt       4.21082093       5.67260998      22.29206800        3      -0.00026816      -0.00027508      -0.05305148
Pt       7.01803487       5.67261039      22.29206775        3      -0.00051318       0.00076720      -0.04915357
Pt       9.82524824       5.67261062      22.29206803        3      -0.00010128       0.00036669      -0.05305977
Pt      -0.00000058       1.62074570      24.58417378        2       0.00250733       0.01034418       0.03223573
Pt       2.80721444       1.62074548      24.58417392        2      -0.00000101      -0.00003989       0.03944306
Pt       5.61442778       1.62074537      24.58417373        2      -0.00080509       0.00786215       0.02633740
Pt       1.40360636       4.05186440      24.58417384        2      -0.00643462      -0.00462825       0.02630089
Pt       4.21082088       4.05186399      24.58417380        2       0.00771018      -0.00736166       0.03220387
Pt       7.01803502       4.05186406      24.58417406        2      -0.00001220      -0.00000668       0.00449239
Pt       2.80721280       6.48298341      24.58417369        2      -0.00000297       0.00002290      -0.00338110
Pt       5.61442796       6.48298324      24.58417387        2       0.00722182      -0.00325906       0.02635401
Pt       8.42164221       6.48298340      24.58417380        2      -0.01023913      -0.00300150       0.03226686
Pt      -0.00241505      -0.00094361      26.90694045        1       0.02264689       0.01413327       0.03501651
Pt       2.80533285      -0.00111000      26.91771313        1       0.01117087       0.01800969      -0.01122359
Pt       5.61643361      -0.00162358      26.90694800        1      -0.02357956       0.01254672       0.03497346
Pt       1.40358278       2.43326915      26.91767704        1       0.01005187      -0.01863841      -0.01110069
Pt       4.21269751       2.43003835      26.91768394        1      -0.02118226       0.00063966      -0.01111280
Pt       7.01584838       2.43656917      26.91684451        1       0.01010197      -0.04354492       0.00002135
Pt       2.80759925       4.86478309      26.90691183        1       0.00090749      -0.02668766       0.03513080
Pt       5.62023640       4.86138459      26.91684249        1      -0.04275190       0.01304495       0.00005880
Pt       8.41799317       4.85761063      26.91684102        1       0.03266848       0.03052974       0.00004069
N        7.01808735       4.05190806      30.82380259        0      -0.00013774      -0.00019390      -0.00664273
H        6.11605373       3.75648172      30.42836692        0      -0.01566828      -0.00354346       0.00561254
H        7.21319137       4.98085376      30.42843974        0       0.00499162       0.01497180       0.00550003
H        7.72494220       3.41844456      30.42832089        0       0.01081498      -0.01123424       0.00556930
