40
Lattice="8.421641763931781 0.0 0.0 4.2108208819658905 7.293355709136913 0.0 0.0 0.0 46.87624170604845" Properties=species:S:1:pos:R:3:tags:I:1:forces:R:3 charge=0 spin=0 energy=-206.42705989798668 free_energy=-206.42705989798668 stress="0.010526301339268684 -5.523884851754701e-07 -8.72481962232996e-08 -5.523884851754701e-07 0.010526132769882679 -9.257020678887784e-07 -8.72481962232996e-08 -9.257020678887784e-07 -1.938408604473807e-05" pbc="T T T"
Pt      -0.00000003       0.00000022      19.95723434        4      -0.00050322      -0.00002986       0.01852478
Pt       2.80721396      -0.00000018      19.95723452        4      -0.00034199      -0.00018034       0.01804011
Pt       5.61442778      -0.00000004      19.95723454        4       0.00027193      -0.00042270       0.01852192
Pt       1.40360719       2.43111838      19.95723440        4       0.00001313       0.00037825       0.01804316
Pt       4.21082079       2.43111832      19.95723449        4       0.00032243      -0.00018752       0.01805131
Pt       7.01803484       2.43111842      19.95723441        4       0.00001702      -0.00012457       0.01862942
Pt       2.80721406       4.86223725      19.95723409        4       0.00024000       0.00044592       0.01852130
Pt       5.61442803       4.86223733      19.95723425        4      -0.00012740       0.00004811       0.01865396
Pt       8.42164141       4.86223723      19.95723442        4       0.00009871       0.00007586       0.01864280
Pt       1.40360730       0.81037260      22.29206788        3      -0.00078629      -0.00063291      -0.04951553
Pt       4.21082126       0.81037254      22.29206791        3       0.00093005      -0.00038645      -0.04953576
Pt       7.01803479       0.81037259      22.29206783        3       0.00057069       0.00077715      -0.05221361
Pt       2.80721452       3.24149125      22.29206775        3      -0.00019358       0.00103260      -0.04950751
Pt       5.61442760       3.24149123      22.29206789        3       0.00104433       0.00013183      -0.05343432
Pt       8.42164156       3.24149116      22.29206803        3      -0.00061752       0.00082308      -0.05350391
Pt       4.21082093       5.67260998      22.29206800        3       0.00033187      -0.00084967      -0.05220309
Pt       7.01803487       5.67261039      22.29206775        3      -0.00040319      -0.00092014      -0.05341525
Pt       9.82524824       5.67261062      22.29206803        3      -0.00091657       0.00011393      -0.05225759
Pt      -0.00000058       1.62074570      24.58417378        2       0.00639588      -0.00814519       0.04658753
Pt       2.80721444       1.62074548      24.58417392        2       0.00000240      -0.00012430       0.04119648
Pt       5.61442778       1.62074537      24.58417373        2      -0.00452609      -0.00711300       0.04644610
Pt       1.40360636       4.05186440      24.58417384        2       0.00821193      -0.00019223       0.04684064
Pt       4.21082088       4.05186399      24.58417380        2      -0.00982770      -0.00129698       0.04687309
Pt       7.01803502       4.05186406      24.58417406        2      -0.00009420       0.00022284       0.02003735
Pt       2.80721280       6.48298341      24.58417369        2       0.00005511      -0.00005487       0.06382748
Pt       5.61442796       6.48298324      24.58417387        2      -0.00387821       0.00714821       0.04701378
Pt       8.42164221       6.48298340      24.58417380        2       0.00373562       0.00929472       0.04692260
Pt      -0.00009285      -0.00145213      26.92220246        1      -0.00048788       0.00348160      -0.02794821
Pt       2.80777655      -0.00001717      26.91853791        1      -0.00095791       0.00310402      -0.01408874
Pt       5.61569736       0.00052545      26.92215159        1      -0.00300956      -0.00248580      -0.02774252
Pt       1.40338303       2.43057689      26.91846288        1       0.00317407      -0.00070254      -0.01394063
Pt       4.21053382       2.43155899      26.91845875        1      -0.00223436      -0.00242642      -0.01390560
Pt       7.01821820       2.43167767      26.91421041        1      -0.00156741      -0.01370521       0.00799966
Pt       2.80609285       4.86300012      26.92213721        1       0.00346376      -0.00129405      -0.02768888
Pt       5.61492031       4.86175168      26.91451985        1      -0.01121341       0.00813685       0.00702214
Pt       8.42097782       4.86202635      26.91443333        1       0.01276878       0.00556823       0.00722447
N        7.01800094       4.04663735      31.00075435        0      -0.00010287       0.00147554       0.03139109
H        7.48850615       3.22878945      30.59280053        0       0.00378780      -0.01128322      -0.01184439
H        6.06832010       4.05901756      30.60755100        0      -0.01244975      -0.00010195      -0.01136852
H        7.49726056       4.87347842      30.62223255        0       0.00880356       0.01040116      -0.01089701
