40
Lattice="8.421641763931781 0.0 0.0 4.2108208819658905 7.293355709136913 0.0 0.0 0.0 46.87624170604845" Properties=species:S:1:pos:R:3:tags:I:1:forces:R:3 charge=0 spin=0 energy=-206.42591739615563 free_energy=-206.42591739615563 stress="0.010472291149199009 -6.638985894369398e-08 -1.238078173315671e-08 -6.638985894369398e-08 0.010472383350133896 -9.485350283000571e-09 -1.238078173315671e-08 -9.485350283000571e-09 -0.0001126087227021344" pbc="T T T"
Pt      -0.00000003       0.00000022      19.95723434        4      -0.00071279      -0.00002933       0.01853640
Pt       2.80721396      -0.00000018      19.95723452        4      -0.00023687       0.00014250       0.01781751
Pt       5.61442778      -0.00000004      19.95723454        4       0.00038052      -0.00060256       0.01852387
Pt       1.40360719       2.43111838      19.95723440        4       0.00023774       0.00013483       0.01782128
Pt       4.21082079       2.43111832      19.95723449        4      -0.00000146      -0.00026693       0.01782292
Pt       7.01803484       2.43111842      19.95723441        4       0.00002303       0.00018716       0.01872567
Pt       2.80721406       4.86223725      19.95723409        4       0.00033709       0.00063456       0.01853224
Pt       5.61442803       4.86223733      19.95723425        4       0.00014601      -0.00011291       0.01873019
Pt       8.42164141       4.86223723      19.95723442        4      -0.00017282      -0.00007235       0.01871545
Pt       1.40360730       0.81037260      22.29206788        3      -0.00068324      -0.00033849      -0.05023878
Pt       4.21082126       0.81037254      22.29206791        3       0.00063299      -0.00041284      -0.05024626
Pt       7.01803479       0.81037259      22.29206783        3       0.00055094       0.00063031      -0.05212081
Pt       2.80721452       3.24149125      22.29206775        3       0.00003949       0.00077733      -0.05025120
Pt       5.61442760       3.24149123      22.29206789        3       0.00065122      -0.00006011      -0.05214159
Pt       8.42164156       3.24149116      22.29206803        3      -0.00025214       0.00060631      -0.05214578
Pt       4.21082093       5.67260998      22.29206800        3       0.00026411      -0.00077374      -0.05213458
Pt       7.01803487       5.67261039      22.29206775        3      -0.00039210      -0.00052107      -0.05213979
Pt       9.82524824       5.67261062      22.29206803        3      -0.00080546       0.00015872      -0.05214460
Pt      -0.00000058       1.62074570      24.58417378        2       0.00103727      -0.00146329       0.03289628
Pt       2.80721444       1.62074548      24.58417392        2      -0.00000591      -0.00003180       0.02685804
Pt       5.61442778       1.62074537      24.58417373        2       0.00186549      -0.00100069       0.02923400
Pt       1.40360636       4.05186440      24.58417384        2      -0.00009192       0.00210573       0.02925362
Pt       4.21082088       4.05186399      24.58417380        2      -0.00174902      -0.00017501       0.03287223
Pt       7.01803502       4.05186406      24.58417406        2      -0.00000723      -0.00001333       0.03403539
Pt       2.80721280       6.48298341      24.58417369        2       0.00000761      -0.00001580       0.04670693
Pt       5.61442796       6.48298324      24.58417387        2      -0.00178123      -0.00117697       0.02928376
Pt       8.42164221       6.48298340      24.58417380        2       0.00071310       0.00156644       0.03290822
Pt       0.00255353      -0.00042515      26.91642006        1      -0.01538760      -0.00081741      -0.00410527
Pt       2.80622836      -0.00171047      26.91423042        1       0.00692012       0.00911848       0.00654930
Pt       5.61349036       0.00238049      26.91642090        1       0.00842815      -0.01284318      -0.00404891
Pt       1.40263995       2.43278186      26.91421655        1       0.00446029      -0.01055895       0.00645692
Pt       4.21276669       2.43107949      26.91421957        1      -0.01137610       0.00145940       0.00648081
Pt       7.01808883       2.42826201      26.91629751        1       0.00092092       0.01228064      -0.00365862
Pt       2.80559245       4.86019376      26.91640652        1       0.00695830       0.01374028      -0.00422976
Pt       5.61195225       4.86357170      26.91630779        1       0.01011882      -0.00691580      -0.00374851
Pt       8.42405722       4.86367016      26.91630437        1      -0.01104468      -0.00532464      -0.00371770
N        7.01809886       4.05167735      30.84174502        0       0.00002235       0.00006949      -0.03299668
H        7.61739337       3.31608139      30.44402451        0      -0.00053912      -0.00195033       0.01378464
H        6.08100358       3.90103566      30.44477015        0      -0.00153770       0.00114795       0.01376313
H        7.35575672       4.93909216      30.44562927        0       0.00206195       0.00071747       0.01375971
