40
Lattice="8.421641763931781 0.0 0.0 4.2108208819658905 7.293355709136913 0.0 0.0 0.0 46.87624170604845" Properties=species:S:1:pos:R:3:tags:I:1:forces:R:3 charge=0 spin=0 energy=-206.42411495169762 free_energy=-206.42411495169762 stress="0.010515104047954082 1.3084100025650969e-08 -8.999863077008285e-09 1.3084100025650969e-08 0.010515158995985985 6.36668033848764e-08 -8.999863077008285e-09 6.36668033848764e-08 -1.8725861082202755e-05" pbc="T T T"
Pt      -0.00000003       0.00000022      19.95723434        4      -0.00075485      -0.00021071       0.01857523
Pt       2.80721396      -0.00000018      19.95723452        4      -0.00017617       0.00001205       0.01787098
Pt       5.61442778      -0.00000004      19.95723454        4       0.00055606      -0.00055178       0.01856320
Pt       1.40360719       2.43111838      19.95723440        4       0.00009491       0.00014459       0.01787836
Pt       4.21082079       2.43111832      19.95723449        4       0.00008010      -0.00015212       0.01787921
Pt       7.01803484       2.43111842      19.95723441        4      -0.00002216       0.00032170       0.01875654
Pt       2.80721406       4.86223725      19.95723409        4       0.00020258       0.00075977       0.01857035
Pt       5.61442803       4.86223733      19.95723425        4       0.00028822      -0.00014456       0.01875625
Pt       8.42164141       4.86223723      19.95723442        4      -0.00027050      -0.00018111       0.01874242
Pt       1.40360730       0.81037260      22.29206788        3      -0.00009850      -0.00016217      -0.05198127
Pt       4.21082126       0.81037254      22.29206791        3       0.00018215       0.00000725      -0.05198731
Pt       7.01803479       0.81037259      22.29206783        3       0.00047447       0.00076048      -0.05115803
Pt       2.80721452       3.24149125      22.29206775        3      -0.00010095       0.00017206      -0.05199794
Pt       5.61442760       3.24149123      22.29206789        3       0.00032275      -0.00024088      -0.05170338
Pt       8.42164156       3.24149116      22.29206803        3       0.00005965       0.00040985      -0.05170288
Pt       4.21082093       5.67260998      22.29206800        3       0.00041580      -0.00078335      -0.05117364
Pt       7.01803487       5.67261039      22.29206775        3      -0.00038596      -0.00015453      -0.05170703
Pt       9.82524824       5.67261062      22.29206803        3      -0.00089004       0.00002555      -0.05118056
Pt      -0.00000058       1.62074570      24.58417378        2      -0.00589639      -0.00016054       0.04310801
Pt       2.80721444       1.62074548      24.58417392        2      -0.00000008       0.00000629       0.03607244
Pt       5.61442778       1.62074537      24.58417373        2       0.00759788       0.00013592       0.04398549
Pt       1.40360636       4.05186440      24.58417384        2      -0.00389794       0.00653966       0.04400761
Pt       4.21082088       4.05186399      24.58417380        2       0.00279915       0.00522359       0.04309802
Pt       7.01803502       4.05186406      24.58417406        2      -0.00000196       0.00000821       0.05910229
Pt       2.80721280       6.48298341      24.58417369        2       0.00000869       0.00000850       0.05539092
Pt       5.61442796       6.48298324      24.58417387        2      -0.00369269      -0.00665595       0.04400461
Pt       8.42164221       6.48298340      24.58417380        2       0.00309817      -0.00504437       0.04311149
Pt       0.00181617       0.00082941      26.91818620        1      -0.01125645      -0.00550415      -0.01237866
Pt       2.80780430      -0.00373734      26.91430733        1      -0.00134202       0.02057538       0.00394751
Pt       5.61280249       0.00116250      26.91818843        1       0.01040419      -0.00697471      -0.01232541
Pt       1.40007199       2.43247943      26.91430360        1       0.01850534      -0.00914804       0.00385824
Pt       4.21376372       2.43350255      26.91430502        1      -0.01716516      -0.01145551       0.00387096
Pt       7.01795890       2.42894146      26.92336297        1      -0.00149998       0.00991238      -0.03196613
Pt       2.80702078       4.86025287      26.91818271        1       0.00087224       0.01246869      -0.01251286
Pt       5.61257677       4.86339567      26.92336262        1       0.00931094      -0.00368293      -0.03207544
Pt       8.42356605       4.86326600      26.92336279        1      -0.00781571      -0.00627738      -0.03203475
N        7.01803382       4.05185833      30.84219071        0      -0.00007094      -0.00000362      -0.02904860
H        7.84258735       3.58396972      30.44364087        0       0.02020770      -0.01131545       0.01257711
H        6.20055066       3.57171990      30.44364234        0      -0.01983833      -0.01181174       0.01260707
H        7.01096092       4.99989000      30.44364601        0      -0.00030418       0.02312398       0.01259958
