40
Lattice="8.421641763931781 0.0 0.0 4.2108208819658905 7.293355709136913 0.0 0.0 0.0 46.87624170604845" Properties=species:S:1:pos:R:3:tags:I:1:forces:R:3 charge=0 spin=0 energy=-206.4241778942025 free_energy=-206.4241778942025 stress="0.010427351109683514 -1.03716317312319e-07 2.7385194556472925e-08 -1.03716317312319e-07 0.010427618399262428 4.2383167198067895e-08 2.7385194556472925e-08 4.2383167198067895e-08 -0.00018111307872459292" pbc="T T T"
Pt      -0.00000003       0.00000022      19.95723434        4      -0.00037143       0.00024130       0.01847425
Pt       2.80721396      -0.00000018      19.95723452        4      -0.00002716      -0.00045575       0.01781745
Pt       5.61442778      -0.00000004      19.95723454        4      -0.00002589      -0.00044539       0.01846210
Pt       1.40360719       2.43111838      19.95723440        4      -0.00038226       0.00025094       0.01781761
Pt       4.21082079       2.43111832      19.95723449        4       0.00041118       0.00021028       0.01781971
Pt       7.01803484       2.43111842      19.95723441        4      -0.00014169      -0.00006925       0.01857425
Pt       2.80721406       4.86223725      19.95723409        4       0.00040339       0.00020563       0.01846384
Pt       5.61442803       4.86223733      19.95723425        4       0.00000954       0.00015629       0.01857563
Pt       8.42164141       4.86223723      19.95723442        4       0.00012933      -0.00008871       0.01855974
Pt       1.40360730       0.81037260      22.29206788        3      -0.00049850      -0.00053825      -0.05200925
Pt       4.21082126       0.81037254      22.29206791        3       0.00071393      -0.00015690      -0.05201197
Pt       7.01803479       0.81037259      22.29206783        3       0.00038466      -0.00009231      -0.05302139
Pt       2.80721452       3.24149125      22.29206775        3      -0.00022195       0.00071363      -0.05203974
Pt       5.61442760       3.24149123      22.29206789        3      -0.00040758      -0.00081673      -0.04915664
Pt       8.42164156       3.24149116      22.29206803        3       0.00092915       0.00006098      -0.04915797
Pt       4.21082093       5.67260998      22.29206800        3      -0.00026795      -0.00027586      -0.05305068
Pt       7.01803487       5.67261039      22.29206775        3      -0.00051265       0.00076707      -0.04915481
Pt       9.82524824       5.67261062      22.29206803        3      -0.00010107       0.00036652      -0.05305953
Pt      -0.00000058       1.62074570      24.58417378        2       0.00250650       0.01034169       0.03223706
Pt       2.80721444       1.62074548      24.58417392        2      -0.00000274      -0.00004048       0.03944067
Pt       5.61442778       1.62074537      24.58417373        2      -0.00080388       0.00785969       0.02633896
Pt       1.40360636       4.05186440      24.58417384        2      -0.00643280      -0.00462647       0.02630838
Pt       4.21082088       4.05186399      24.58417380        2       0.00770743      -0.00735837       0.03220468
Pt       7.01803502       4.05186406      24.58417406        2      -0.00001318      -0.00000676       0.00449271
Pt       2.80721280       6.48298341      24.58417369        2      -0.00000383       0.00002162      -0.00337027
Pt       5.61442796       6.48298324      24.58417387        2       0.00722005      -0.00325772       0.02635482
Pt       8.42164221       6.48298340      24.58417380        2      -0.01023685      -0.00300063       0.03226955
Pt      -0.00241444      -0.00094394      26.90694198        1       0.02264290       0.01413261       0.03500957
Pt       2.80533303      -0.00110990      26.91771243        1       0.01117117       0.01800996      -0.01122247
Pt       5.61643304      -0.00162348      26.90695022        1      -0.02357982       0.01254216       0.03496205
Pt       1.40358232       2.43326814      26.91767679        1       0.01005439      -0.01863046      -0.01110031
Pt       4.21269673       2.43003885      26.91768319        1      -0.02117920       0.00063850      -0.01110404
Pt       7.01584807       2.43656854      26.91684578        1       0.01009879      -0.04354211       0.00001980
Pt       2.80759985       4.86478314      26.90691566        1       0.00090669      -0.02668753       0.03512060
Pt       5.62023551       4.86138533      26.91684311        1      -0.04275157       0.01303985       0.00005844
Pt       8.41799290       4.85761126      26.91684214        1       0.03267555       0.03052681       0.00003840
N        7.01808861       4.05190836      30.82373642        0      -0.00022503      -0.00022274      -0.00660223
H        7.72495313       3.41845724      30.42825736        0       0.01086422      -0.01126761       0.00554483
H        6.11605818       3.75646533      30.42830419        0      -0.01564669      -0.00353090       0.00562356
H        7.21317544       4.98085761      30.42837625        0       0.00500481       0.01502549       0.00547246
