40
Lattice="8.421641763931781 0.0 0.0 4.2108208819658905 7.293355709136913 0.0 0.0 0.0 46.87624170604845" Properties=species:S:1:pos:R:3:tags:I:1:forces:R:3 charge=0 spin=0 energy=-206.42798877677086 free_energy=-206.42798877677086 stress="0.010533963330090046 1.3538459242568024e-09 -1.6511391365270356e-08 1.3538459242568024e-09 0.010534031316637993 2.3551931960241745e-08 -1.6511391365270356e-08 2.3551931960241745e-08 1.7354428564431146e-05" pbc="T T T"
Pt      -0.00000003       0.00000022      19.95723434        4      -0.00067609      -0.00014312       0.01852440
Pt       2.80721396      -0.00000018      19.95723452        4      -0.00015079      -0.00012857       0.01792995
Pt       5.61442778      -0.00000004      19.95723454        4       0.00045900      -0.00051534       0.01851199
Pt       1.40360719       2.43111838      19.95723440        4      -0.00004047       0.00019286       0.01793640
Pt       4.21082079       2.43111832      19.95723449        4       0.00019026      -0.00005984       0.01793710
Pt       7.01803484       2.43111842      19.95723441        4      -0.00002575       0.00007685       0.01880073
Pt       2.80721406       4.86223725      19.95723409        4       0.00022081       0.00065802       0.01852022
Pt       5.61442803       4.86223733      19.95723425        4       0.00007749      -0.00001860       0.01880190
Pt       8.42164141       4.86223723      19.95723442        4      -0.00005619      -0.00006115       0.01878801
Pt       1.40360730       0.81037260      22.29206788        3       0.00012096      -0.00007799      -0.05149215
Pt       4.21082126       0.81037254      22.29206791        3      -0.00000010       0.00015407      -0.05149968
Pt       7.01803479       0.81037259      22.29206783        3       0.00036112       0.00098840      -0.05069245
Pt       2.80721452       3.24149125      22.29206775        3      -0.00013730      -0.00005750      -0.05151438
Pt       5.61442760       3.24149123      22.29206789        3       0.00040455      -0.00022880      -0.05288360
Pt       8.42164156       3.24149116      22.29206803        3       0.00001116       0.00047750      -0.05288463
Pt       4.21082093       5.67260998      22.29206800        3       0.00066724      -0.00079779      -0.05071282
Pt       7.01803487       5.67261039      22.29206775        3      -0.00041721      -0.00023163      -0.05288775
Pt       9.82524824       5.67261062      22.29206803        3      -0.00102771      -0.00018572      -0.05072207
Pt      -0.00000058       1.62074570      24.58417378        2      -0.00396278      -0.00127356       0.05010893
Pt       2.80721444       1.62074548      24.58417392        2      -0.00000327      -0.00000965       0.03818163
Pt       5.61442778       1.62074537      24.58417373        2       0.00570432      -0.00074631       0.05139614
Pt       1.40360636       4.05186440      24.58417384        2      -0.00219677       0.00531516       0.05138910
Pt       4.21082088       4.05186399      24.58417380        2       0.00089004       0.00408780       0.05005651
Pt       7.01803502       4.05186406      24.58417406        2      -0.00000399      -0.00000979       0.05888177
Pt       2.80721280       6.48298341      24.58417369        2       0.00001509       0.00002069       0.05528126
Pt       5.61442796       6.48298324      24.58417387        2      -0.00349916      -0.00456312       0.05141792
Pt       8.42164221       6.48298340      24.58417380        2       0.00307057      -0.00281150       0.05009089
Pt      -0.00020360      -0.00018189      26.92005482        1       0.00097019       0.00128119      -0.02010073
Pt       2.80754709      -0.00209582      26.91590158        1       0.00009475       0.00949804      -0.00464846
Pt       5.61468276      -0.00008953      26.92005014        1      -0.00157683       0.00021876      -0.02002087
Pt       1.40162862       2.43186728      26.91588971        1       0.00818403      -0.00482786      -0.00470525
Pt       4.21246586       2.43244698      26.91588840        1      -0.00828602      -0.00465670      -0.00466335
Pt       7.01800484       2.42959325      26.92323020        1      -0.00140760       0.00736982      -0.03102865
Pt       2.80715938       4.86249677      26.92002814        1       0.00062659      -0.00148553      -0.02017740
Pt       5.61312299       4.86302672      26.92321915        1       0.00707092      -0.00250762      -0.03112010
Pt       8.42297474       4.86297241      26.92321687        1      -0.00566710      -0.00494202      -0.03108933
N        7.01803388       4.05186548      30.88820827        0       0.00001057       0.00000890      -0.04651726
H        6.99677982       3.10488072      30.48710418        0      -0.00067635      -0.02792698       0.01893069
H        6.20854885       4.54376463      30.48710231        0      -0.02384353       0.01454928       0.01893451
H        7.84877486       4.50695090      30.48710477        0       0.02450523       0.01336920       0.01894104
