40
Lattice="8.421641763931781 0.0 0.0 4.2108208819658905 7.293355709136913 0.0 0.0 0.0 46.87624170604845" Properties=species:S:1:pos:R:3:tags:I:1:forces:R:3 charge=0 spin=0 energy=-206.42804790457848 free_energy=-206.42804790457848 stress="0.010447509586811066 -8.998195077936089e-09 1.9221557678861245e-08 -8.998195077936089e-09 0.010447479784488678 -1.4799126368814086e-08 1.9221557678861245e-08 -1.4799126368814086e-08 -0.00014925496361684054" pbc="T T T"
Pt      -0.00000003       0.00000022      19.95723434        4      -0.00073528      -0.00012103       0.01849323
Pt       2.80721396      -0.00000018      19.95723452        4      -0.00012701       0.00012471       0.01775105
Pt       5.61442778      -0.00000004      19.95723454        4       0.00046901      -0.00057984       0.01848012
Pt       1.40360719       2.43111838      19.95723440        4       0.00016840       0.00004624       0.01775735
Pt       4.21082079       2.43111832      19.95723449        4      -0.00004124      -0.00016609       0.01775744
Pt       7.01803484       2.43111842      19.95723441        4      -0.00004130       0.00043272       0.01875618
Pt       2.80721406       4.86223725      19.95723409        4       0.00027059       0.00069772       0.01848587
Pt       5.61442803       4.86223733      19.95723425        4       0.00039391      -0.00018315       0.01875555
Pt       8.42164141       4.86223723      19.95723442        4      -0.00035606      -0.00025323       0.01874077
Pt       1.40360730       0.81037260      22.29206788        3      -0.00005346      -0.00011337      -0.05116804
Pt       4.21082126       0.81037254      22.29206791        3       0.00011656       0.00001052      -0.05117414
Pt       7.01803479       0.81037259      22.29206783        3       0.00048218       0.00053733      -0.05164649
Pt       2.80721452       3.24149125      22.29206775        3      -0.00007171       0.00010792      -0.05118885
Pt       5.61442760       3.24149123      22.29206789        3       0.00025397      -0.00027360      -0.05167749
Pt       8.42164156       3.24149116      22.29206803        3       0.00012585       0.00036424      -0.05167861
Pt       4.21082093       5.67260998      22.29206800        3       0.00022452      -0.00068392      -0.05166668
Pt       7.01803487       5.67261039      22.29206775        3      -0.00037638      -0.00008157      -0.05168180
Pt       9.82524824       5.67261062      22.29206803        3      -0.00070119       0.00013551      -0.05167368
Pt      -0.00000058       1.62074570      24.58417378        2      -0.00377709       0.00227817       0.02510574
Pt       2.80721444       1.62074548      24.58417392        2      -0.00000030      -0.00000621       0.02100745
Pt       5.61442778       1.62074537      24.58417373        2       0.00522413       0.00246805       0.02570102
Pt       1.40360636       4.05186440      24.58417384        2      -0.00474258       0.00329805       0.02567689
Pt       4.21082088       4.05186399      24.58417380        2       0.00386181       0.00215017       0.02504503
Pt       7.01803502       4.05186406      24.58417406        2      -0.00000280      -0.00001286       0.04141065
Pt       2.80721280       6.48298341      24.58417369        2       0.00000186       0.00002128       0.04169986
Pt       5.61442796       6.48298324      24.58417387        2      -0.00048168      -0.00577200       0.02570457
Pt       8.42164221       6.48298340      24.58417380        2      -0.00008691      -0.00442713       0.02510045
Pt       0.00370019       0.00203530      26.91348307        1      -0.02532573      -0.01315434       0.00667727
Pt       2.80750809      -0.00263440      26.91251565        1       0.00063257       0.01122442       0.01412004
Pt       5.61081523       0.00218930      26.91348558        1       0.02406050      -0.01535437       0.00671896
Pt       1.40117748       2.43218057      26.91250940        1       0.00943418      -0.00618056       0.01402195
Pt       4.21295488       2.43269183      26.91251086        1      -0.01007929      -0.00506666       0.01406601
Pt       7.01761333       2.42810921      26.91832715        1       0.00056946       0.01566809      -0.01012238
Pt       2.80712327       4.85801545      26.91346193        1       0.00128890       0.02852378       0.00660817
Pt       5.61203079       4.86410653      26.91831330        1       0.01325238      -0.00832087      -0.01016539
Pt       8.42445874       4.86337765      26.91831362        1      -0.01382733      -0.00734653      -0.01014893
N        7.01803520       4.05185872      30.84811502        0      -0.00010176       0.00004547      -0.01011435
H        7.00259176       3.10283689      30.45230271        0      -0.00033087      -0.01487490       0.00681262
H        6.20387415       4.53975076      30.45231695        0      -0.01263377       0.00768740       0.00685002
H        7.84763701       4.51300219      30.45231830        0       0.01306281       0.00715015       0.00680253
