40
Lattice="8.421641763931781 0.0 0.0 4.2108208819658905 7.293355709136913 0.0 0.0 0.0 46.87624170604845" Properties=species:S:1:pos:R:3:tags:I:1:forces:R:3 charge=0 spin=0 energy=-206.42585636099938 free_energy=-206.42585636099938 stress="0.01047283411026001 1.534042226580823e-08 -3.158484807030959e-09 1.534042226580823e-08 0.0104728564620018 7.281729885733057e-09 -3.158484807030959e-09 7.281729885733057e-09 -0.00011301072663627565" pbc="T T T"
Pt      -0.00000003       0.00000022      19.95723434        4      -0.00064735      -0.00015639       0.01850953
Pt       2.80721396      -0.00000018      19.95723452        4      -0.00018931       0.00015364       0.01783996
Pt       5.61442778      -0.00000004      19.95723454        4       0.00045628      -0.00048359       0.01849622
Pt       1.40360719       2.43111838      19.95723440        4       0.00022489       0.00008679       0.01784391
Pt       4.21082079       2.43111832      19.95723449        4      -0.00003511      -0.00023458       0.01784425
Pt       7.01803484       2.43111842      19.95723441        4      -0.00005934       0.00018474       0.01874989
Pt       2.80721406       4.86223725      19.95723409        4       0.00019483       0.00063932       0.01850514
Pt       5.61442803       4.86223733      19.95723425        4       0.00018648      -0.00004281       0.01875449
Pt       8.42164141       4.86223723      19.95723442        4      -0.00013094      -0.00014371       0.01873992
Pt       1.40360730       0.81037260      22.29206788        3      -0.00045564      -0.00073755      -0.05007809
Pt       4.21082126       0.81037254      22.29206791        3       0.00085840      -0.00001972      -0.05008448
Pt       7.01803479       0.81037259      22.29206783        3       0.00052752       0.00054883      -0.05213033
Pt       2.80721452       3.24149125      22.29206775        3      -0.00041427       0.00076952      -0.05009605
Pt       5.61442760       3.24149123      22.29206789        3       0.00068140      -0.00006446      -0.05230887
Pt       8.42164156       3.24149116      22.29206803        3      -0.00026934       0.00062781      -0.05231029
Pt       4.21082093       5.67260998      22.29206800        3       0.00020860      -0.00072189      -0.05214310
Pt       7.01803487       5.67261039      22.29206775        3      -0.00040907      -0.00055478      -0.05230676
Pt       9.82524824       5.67261062      22.29206803        3      -0.00072860       0.00017366      -0.05215084
Pt      -0.00000058       1.62074570      24.58417378        2       0.00018580      -0.00128104       0.02882906
Pt       2.80721444       1.62074548      24.58417392        2      -0.00000252      -0.00001430       0.02591414
Pt       5.61442778       1.62074537      24.58417373        2       0.00041470      -0.00187084       0.03339333
Pt       1.40360636       4.05186440      24.58417384        2       0.00140534       0.00130284       0.03339654
Pt       4.21082088       4.05186399      24.58417380        2      -0.00118817       0.00048831       0.02880785
Pt       7.01803502       4.05186406      24.58417406        2      -0.00000004      -0.00000140       0.03369271
Pt       2.80721280       6.48298341      24.58417369        2       0.00000481      -0.00000047       0.04722109
Pt       5.61442796       6.48298324      24.58417387        2      -0.00182105       0.00054723       0.03341554
Pt       8.42164221       6.48298340      24.58417380        2       0.00100137       0.00076696       0.02884819
Pt       0.00103949       0.00234667      26.91667716        1      -0.00836395      -0.01225265      -0.00468536
Pt       2.80899918      -0.00166705      26.91419855        1      -0.00751522       0.00922727       0.00665736
Pt       5.61186751      -0.00028593      26.91668222        1       0.01481288      -0.00109699      -0.00464117
Pt       1.40127934       2.43039310      26.91418637        1       0.01178135       0.00188914       0.00654536
Pt       4.21136424       2.43348558      26.91419041        1      -0.00426497      -0.01111710       0.00658836
Pt       7.01739873       2.42826721      26.91611931        1      -0.00154982       0.01188077      -0.00298118
Pt       2.80873386       4.86015107      26.91666748        1      -0.00645030       0.01337360      -0.00480845
Pt       5.61228340       4.86420070      26.91612135        1       0.01101958      -0.00458289      -0.00304352
Pt       8.42442052       4.86309893      26.91612267        1      -0.00947134      -0.00728152      -0.00304883
N        7.01800832       4.05179024      30.83767538        0       0.00001278      -0.00005221      -0.03187260
H        7.95633871       3.90935183      30.44067018        0       0.00235928       0.00109919       0.01337116
H        6.42539230       3.31061386      30.44039563        0      -0.00020106      -0.00259719       0.01338686
H        6.67234373       4.93581918      30.44097532        0      -0.00216910       0.00154838       0.01333912
