40
Lattice="8.421641763931781 0.0 0.0 4.2108208819658905 7.293355709136913 0.0 0.0 0.0 46.87624170604845" Properties=species:S:1:pos:R:3:tags:I:1:forces:R:3 charge=0 spin=0 energy=-206.42495799979332 free_energy=-206.42495799979332 stress="0.010533650405704975 1.7617228564859033e-08 -2.947673571895848e-08 1.7617228564859033e-08 0.0105337705463171 1.8794227685248188e-07 -2.947673571895848e-08 1.8794227685248188e-07 -7.329121217480861e-06" pbc="T T T"
Pt      -0.00000003       0.00000022      19.95723434        4      -0.00046194       0.00003843       0.01855052
Pt       2.80721396      -0.00000018      19.95723452        4      -0.00027556      -0.00014261       0.01808373
Pt       5.61442778      -0.00000004      19.95723454        4       0.00019570      -0.00041778       0.01853687
Pt       1.40360719       2.43111838      19.95723440        4       0.00001188       0.00030655       0.01808373
Pt       4.21082079       2.43111832      19.95723449        4       0.00026169      -0.00016021       0.01808256
Pt       7.01803484       2.43111842      19.95723441        4       0.00002708      -0.00012726       0.01861093
Pt       2.80721406       4.86223725      19.95723409        4       0.00026946       0.00038329       0.01854724
Pt       5.61442803       4.86223733      19.95723425        4      -0.00012833       0.00003925       0.01862111
Pt       8.42164141       4.86223723      19.95723442        4       0.00009674       0.00008661       0.01860771
Pt       1.40360730       0.81037260      22.29206788        3      -0.00094828      -0.00098994      -0.04918995
Pt       4.21082126       0.81037254      22.29206791        3       0.00132668      -0.00030903      -0.04920589
Pt       7.01803479       0.81037259      22.29206783        3       0.00057120       0.00058361      -0.05279485
Pt       2.80721452       3.24149125      22.29206775        3      -0.00039909       0.00133136      -0.04922657
Pt       5.61442760       3.24149123      22.29206789        3       0.00102765       0.00020676      -0.05321964
Pt       8.42164156       3.24149116      22.29206803        3      -0.00067646       0.00080418      -0.05322684
Pt       4.21082093       5.67260998      22.29206800        3       0.00020788      -0.00077646      -0.05280638
Pt       7.01803487       5.67261039      22.29206775        3      -0.00034991      -0.00098846      -0.05321631
Pt       9.82524824       5.67261062      22.29206803        3      -0.00078113       0.00020580      -0.05282992
Pt      -0.00000058       1.62074570      24.58417378        2       0.00830320      -0.00801338       0.04835886
Pt       2.80721444       1.62074548      24.58417392        2      -0.00001131      -0.00004867       0.04546896
Pt       5.61442778       1.62074537      24.58417373        2      -0.00674599      -0.00860417       0.04811614
Pt       1.40360636       4.05186440      24.58417384        2       0.01082063      -0.00158822       0.04810715
Pt       4.21082088       4.05186399      24.58417380        2      -0.01102321      -0.00318772       0.04826444
Pt       7.01803502       4.05186406      24.58417406        2      -0.00003005       0.00000650       0.01580002
Pt       2.80721280       6.48298341      24.58417369        2       0.00005509       0.00003063       0.06725975
Pt       5.61442796       6.48298324      24.58417387        2      -0.00407058       0.01018989       0.04824345
Pt       8.42164221       6.48298340      24.58417380        2       0.00271938       0.01118531       0.04836635
Pt      -0.00057064      -0.00014829      26.92287779        1       0.00064858      -0.00013268      -0.03126312
Pt       2.80758354       0.00026810      26.91987782        1      -0.00032121       0.00339816      -0.01895762
Pt       5.61484222      -0.00043054      26.92283441        1      -0.00028768       0.00057810      -0.03107299
Pt       1.40366533       2.43062748      26.91983756        1       0.00315984      -0.00138764      -0.01894757
Pt       4.21040459       2.43128660      26.91982049        1      -0.00286308      -0.00199752      -0.01884276
Pt       7.01736317       2.43205202      26.91332148        1       0.00111910      -0.01735472       0.01201492
Pt       2.80736449       4.86277493      26.92280551        1      -0.00037504      -0.00043498      -0.03108870
Pt       5.61556716       4.86236617      26.91332771        1      -0.01555470       0.00760555       0.01201004
Pt       8.42116083       4.86116536      26.91331306        1       0.01447094       0.00968770       0.01205043
N        7.01803689       4.05186239      31.01068408        0      -0.00008710      -0.00001351       0.02779678
H        6.20228114       3.56545017      30.61724835        0      -0.00665104      -0.00411899      -0.01054132
H        7.00466359       5.00153101      30.61724692        0      -0.00021908       0.00787483      -0.01056178
H        7.84715609       3.58860676      30.61724196        0       0.00696788      -0.00374857      -0.01058935
