40
Lattice="8.421641763931781 0.0 0.0 4.2108208819658905 7.293355709136913 0.0 0.0 0.0 46.87624170604845" Properties=species:S:1:pos:R:3:tags:I:1:forces:R:3 charge=0 spin=0 energy=-206.42912937125328 free_energy=-206.42912937125328 stress="0.010527651757001877 2.8205770163935995e-08 -4.072613357664068e-09 2.8205770163935995e-08 0.01052772905677557 5.541847425405422e-09 -4.072613357664068e-09 5.541847425405422e-09 -4.104684921912849e-05" pbc="T T T"
Pt      -0.00000003       0.00000022      19.95723434        4      -0.00053735      -0.00001222       0.01845720
Pt       2.80721396      -0.00000018      19.95723452        4      -0.00023344      -0.00018989       0.01803648
Pt       5.61442778      -0.00000004      19.95723454        4       0.00027745      -0.00045799       0.01844299
Pt       1.40360719       2.43111838      19.95723440        4      -0.00005058       0.00029569       0.01803850
Pt       4.21082079       2.43111832      19.95723449        4       0.00028359      -0.00010005       0.01803725
Pt       7.01803484       2.43111842      19.95723441        4       0.00002822      -0.00012504       0.01864030
Pt       2.80721406       4.86223725      19.95723409        4       0.00026365       0.00047420       0.01845474
Pt       5.61442803       4.86223733      19.95723425        4      -0.00012664       0.00003823       0.01864931
Pt       8.42164141       4.86223723      19.95723442        4       0.00009456       0.00008760       0.01863602
Pt       1.40360730       0.81037260      22.29206788        3      -0.00053971      -0.00063590      -0.04939183
Pt       4.21082126       0.81037254      22.29206791        3       0.00081668      -0.00013044      -0.04940201
Pt       7.01803479       0.81037259      22.29206783        3       0.00048820       0.00086128      -0.05178773
Pt       2.80721452       3.24149125      22.29206775        3      -0.00029375       0.00079807      -0.04942512
Pt       5.61442760       3.24149123      22.29206789        3       0.00100107       0.00016590      -0.05391124
Pt       8.42164156       3.24149116      22.29206803        3      -0.00062588       0.00079476      -0.05391978
Pt       4.21082093       5.67260998      22.29206800        3       0.00049271      -0.00084028      -0.05179626
Pt       7.01803487       5.67261039      22.29206775        3      -0.00037047      -0.00094604      -0.05389997
Pt       9.82524824       5.67261062      22.29206803        3      -0.00097432      -0.00000817      -0.05181558
Pt      -0.00000058       1.62074570      24.58417378        2       0.00508079      -0.00735042       0.04282948
Pt       2.80721444       1.62074548      24.58417392        2      -0.00000185      -0.00006514       0.03557690
Pt       5.61442778       1.62074537      24.58417373        2      -0.00357043      -0.00715351       0.04335836
Pt       1.40360636       4.05186440      24.58417384        2       0.00794744       0.00046222       0.04335896
Pt       4.21082088       4.05186399      24.58417380        2      -0.00883514      -0.00072336       0.04278753
Pt       7.01803502       4.05186406      24.58417406        2      -0.00002350       0.00000979       0.02144881
Pt       2.80721280       6.48298341      24.58417369        2       0.00003939       0.00000658       0.05849860
Pt       5.61442796       6.48298324      24.58417387        2      -0.00438082       0.00665075       0.04347181
Pt       8.42164221       6.48298340      24.58417380        2       0.00375026       0.00803439       0.04286120
Pt      -0.00076479      -0.00048996      26.92129359        1       0.00202535       0.00158375      -0.02359913
Pt       2.80754333      -0.00010724      26.91715537        1       0.00014005       0.00214045      -0.00867110
Pt       5.61522153      -0.00044645      26.92126992        1      -0.00239144       0.00095954      -0.02344531
Pt       1.40338159       2.43084152      26.91710963        1       0.00178518      -0.00115167      -0.00861836
Pt       4.21072849       2.43142505      26.91710632        1      -0.00195382      -0.00094465      -0.00856253
Pt       7.01770152       2.43113727      26.91429603        1      -0.00002848      -0.00834136       0.00823369
Pt       2.80717934       4.86311633      26.92125140        1       0.00039811      -0.00251562      -0.02362398
Pt       5.61461324       4.86250755      26.91432018        1      -0.00722839       0.00413713       0.00801351
Pt       8.42177823       4.86190331      26.91430599        1       0.00725364       0.00419325       0.00808267
N        7.01803518       4.05186185      31.00751831        0      -0.00002315       0.00004392      -0.00527276
H        7.85058553       4.51018344      30.61337094        0      -0.01705453      -0.00924264       0.00107701
H        6.99867678       3.10169310      30.61336920        0       0.00052813       0.01936174       0.00106287
H        6.20484255       4.54371278      30.61337166        0       0.01654953      -0.01016509       0.00108846
