40
Lattice="8.421641763931781 0.0 0.0 4.2108208819658905 7.293355709136913 0.0 0.0 0.0 46.87624170604845" Properties=species:S:1:pos:R:3:tags:I:1:forces:R:3 charge=0 spin=0 energy=-206.4291370006478 free_energy=-206.4291370006478 stress="0.01052757166326046 8.818625829576376e-09 -8.662818906657321e-09 8.818625829576376e-09 0.010527674108743668 1.5071616843442825e-08 -8.662818906657321e-09 1.5071616843442825e-08 -4.105992411496118e-05" pbc="T T T"
Pt      -0.00000003       0.00000022      19.95723434        4      -0.00053690      -0.00001192       0.01845718
Pt       2.80721396      -0.00000018      19.95723452        4      -0.00023403      -0.00018960       0.01803625
Pt       5.61442778      -0.00000004      19.95723454        4       0.00027687      -0.00045790       0.01844357
Pt       1.40360719       2.43111838      19.95723440        4      -0.00005022       0.00029598       0.01803805
Pt       4.21082079       2.43111832      19.95723449        4       0.00028355      -0.00010065       0.01803755
Pt       7.01803484       2.43111842      19.95723441        4       0.00002789      -0.00012643       0.01864166
Pt       2.80721406       4.86223725      19.95723409        4       0.00026349       0.00047374       0.01845423
Pt       5.61442803       4.86223733      19.95723425        4      -0.00012789       0.00003881       0.01864948
Pt       8.42164141       4.86223723      19.95723442        4       0.00009526       0.00008824       0.01863587
Pt       1.40360730       0.81037260      22.29206788        3      -0.00054078      -0.00063447      -0.04938645
Pt       4.21082126       0.81037254      22.29206791        3       0.00081693      -0.00013135      -0.04939638
Pt       7.01803479       0.81037259      22.29206783        3       0.00048786       0.00086245      -0.05178762
Pt       2.80721452       3.24149125      22.29206775        3      -0.00029481       0.00080070      -0.04941955
Pt       5.61442760       3.24149123      22.29206789        3       0.00100122       0.00016743      -0.05391582
Pt       8.42164156       3.24149116      22.29206803        3      -0.00062689       0.00079714      -0.05392342
Pt       4.21082093       5.67260998      22.29206800        3       0.00049173      -0.00083933      -0.05179813
Pt       7.01803487       5.67261039      22.29206775        3      -0.00037034      -0.00094528      -0.05390640
Pt       9.82524824       5.67261062      22.29206803        3      -0.00097546      -0.00000789      -0.05181653
Pt      -0.00000058       1.62074570      24.58417378        2       0.00509269      -0.00735811       0.04285114
Pt       2.80721444       1.62074548      24.58417392        2      -0.00000181      -0.00006579       0.03555725
Pt       5.61442778       1.62074537      24.58417373        2      -0.00357735      -0.00715300       0.04338080
Pt       1.40360636       4.05186440      24.58417384        2       0.00796194       0.00046039       0.04337379
Pt       4.21082088       4.05186399      24.58417380        2      -0.00884456      -0.00073211       0.04280290
Pt       7.01803502       4.05186406      24.58417406        2      -0.00002503       0.00000727       0.02145867
Pt       2.80721280       6.48298341      24.58417369        2       0.00003365       0.00000940       0.05850914
Pt       5.61442796       6.48298324      24.58417387        2      -0.00438310       0.00666650       0.04349132
Pt       8.42164221       6.48298340      24.58417380        2       0.00375511       0.00804832       0.04288379
Pt      -0.00077108      -0.00049408      26.92130393        1       0.00206514       0.00160695      -0.02365549
Pt       2.80754320      -0.00009627      26.91715917        1       0.00014150       0.00206504      -0.00868554
Pt       5.61522888      -0.00044960      26.92127951        1      -0.00246030       0.00096615      -0.02352472
Pt       1.40339127       2.43083617      26.91711304        1       0.00171932      -0.00111904      -0.00862341
Pt       4.21071965       2.43141879      26.91710992        1      -0.00188903      -0.00090713      -0.00857447
Pt       7.01770146       2.43113079      26.91429268        1      -0.00002925      -0.00829627       0.00822443
Pt       2.80717958       4.86312377      26.92126160        1       0.00039907      -0.00256168      -0.02366728
Pt       5.61460782       4.86251088      26.91431565        1      -0.00715581       0.00410534       0.00803938
Pt       8.42178377       4.86190661      26.91430076        1       0.00721416       0.00417124       0.00808961
N        7.01803511       4.05186215      31.00729017        0       0.00000827      -0.00003018      -0.00511496
H        6.20484336       4.54370655      30.61314334        0       0.01638041      -0.01005623       0.00103738
H        7.85057869       4.51018707      30.61314209        0      -0.01692438      -0.00917341       0.00104440
H        6.99868067       3.10169746      30.61313699        0       0.00053196       0.01926653       0.00105816
