40
Lattice="8.421641763931781 0.0 0.0 4.2108208819658905 7.293355709136913 0.0 0.0 0.0 46.87624170604845" Properties=species:S:1:pos:R:3:tags:I:1:forces:R:3 charge=0 spin=0 energy=-206.4241778942025 free_energy=-206.4241778942025 stress="0.01042739488184452 -9.96043567624838e-08 1.3256245878778827e-08 -9.96043567624838e-08 0.010427698493003845 2.1815729667196138e-08 1.3256245878778827e-08 2.1815729667196138e-08 -0.00018105223716702312" pbc="T T T"
Pt      -0.00000003       0.00000022      19.95723434        4      -0.00037163       0.00024114       0.01847406
Pt       2.80721396      -0.00000018      19.95723452        4      -0.00002701      -0.00045586       0.01781772
Pt       5.61442778      -0.00000004      19.95723454        4      -0.00002610      -0.00044518       0.01846189
Pt       1.40360719       2.43111838      19.95723440        4      -0.00038243       0.00025097       0.01781783
Pt       4.21082079       2.43111832      19.95723449        4       0.00041127       0.00021040       0.01781980
Pt       7.01803484       2.43111842      19.95723441        4      -0.00014153      -0.00006945       0.01857406
Pt       2.80721406       4.86223725      19.95723409        4       0.00040341       0.00020531       0.01846365
Pt       5.61442803       4.86223733      19.95723425        4       0.00000931       0.00015625       0.01857556
Pt       8.42164141       4.86223723      19.95723442        4       0.00012931      -0.00008883       0.01855979
Pt       1.40360730       0.81037260      22.29206788        3      -0.00049803      -0.00053727      -0.05201007
Pt       4.21082126       0.81037254      22.29206791        3       0.00071402      -0.00015660      -0.05201278
Pt       7.01803479       0.81037259      22.29206783        3       0.00038497      -0.00009229      -0.05302022
Pt       2.80721452       3.24149125      22.29206775        3      -0.00022151       0.00071399      -0.05204022
Pt       5.61442760       3.24149123      22.29206789        3      -0.00040759      -0.00081644      -0.04915618
Pt       8.42164156       3.24149116      22.29206803        3       0.00092916       0.00006078      -0.04915804
Pt       4.21082093       5.67260998      22.29206800        3      -0.00026819      -0.00027517      -0.05305085
Pt       7.01803487       5.67261039      22.29206775        3      -0.00051259       0.00076722      -0.04915426
Pt       9.82524824       5.67261062      22.29206803        3      -0.00010113       0.00036643      -0.05305913
Pt      -0.00000058       1.62074570      24.58417378        2       0.00250756       0.01034521       0.03224237
Pt       2.80721444       1.62074548      24.58417392        2      -0.00000291      -0.00004067       0.03945352
Pt       5.61442778       1.62074537      24.58417373        2      -0.00080469       0.00786063       0.02634435
Pt       1.40360636       4.05186440      24.58417384        2      -0.00643429      -0.00462904       0.02631249
Pt       4.21082088       4.05186399      24.58417380        2       0.00770913      -0.00736074       0.03221041
Pt       7.01803502       4.05186406      24.58417406        2      -0.00001268      -0.00000668       0.00450099
Pt       2.80721280       6.48298341      24.58417369        2      -0.00000471       0.00002201      -0.00338663
Pt       5.61442796       6.48298324      24.58417387        2       0.00722359      -0.00325919       0.02635914
Pt       8.42164221       6.48298340      24.58417380        2      -0.01023892      -0.00300016       0.03227700
Pt      -0.00241712      -0.00094555      26.90694029        1       0.02266730       0.01414265       0.03502217
Pt       2.80533257      -0.00111021      26.91771415        1       0.01117498       0.01801486      -0.01123290
Pt       5.61643599      -0.00162470      26.90694960        1      -0.02360840       0.01254869       0.03497015
Pt       1.40358236       2.43326909      26.91767811        1       0.01005898      -0.01863729      -0.01111254
Pt       4.21269777       2.43003878      26.91768495        1      -0.02118953       0.00063654      -0.01111543
Pt       7.01584814       2.43656924      26.91684644        1       0.01010219      -0.04354243       0.00001253
Pt       2.80759980       4.86478618      26.90691385        1       0.00090296      -0.02671256       0.03512781
Pt       5.62023589       4.86138456      26.91684459        1      -0.04274891       0.01304329       0.00005210
Pt       8.41799222       4.85761087      26.91684356        1       0.03267256       0.03052943       0.00003285
N        7.01808723       4.05190725      30.82382100        0      -0.00015213      -0.00009107      -0.00673535
H        7.21319630       4.98085334      30.42845427        0       0.00497041       0.01486879       0.00555054
H        7.72493884       3.41844149      30.42833588        0       0.01080934      -0.01123449       0.00557590
H        6.11605144       3.75648612      30.42838108        0      -0.01562553      -0.00353341       0.00563595
