40
Lattice="8.421641763931781 0.0 0.0 4.2108208819658905 7.293355709136913 0.0 0.0 0.0 46.87624170604845" Properties=species:S:1:pos:R:3:tags:I:1:forces:R:3 charge=0 spin=0 energy=-206.42411685904625 free_energy=-206.42411685904625 stress="0.010430335067212582 4.404111919598108e-08 -1.8621342690039455e-08 4.404111919598108e-08 0.01043032482266426 1.5082662230270216e-08 -1.8621342690039455e-08 1.5082662230270216e-08 -0.00017861156084109098" pbc="T T T"
Pt      -0.00000003       0.00000022      19.95723434        4      -0.00027724       0.00007162       0.01850650
Pt       2.80721396      -0.00000018      19.95723452        4      -0.00025039      -0.00047807       0.01782033
Pt       5.61442778      -0.00000004      19.95723454        4       0.00007354      -0.00027882       0.01849397
Pt       1.40360719       2.43111838      19.95723440        4      -0.00028972       0.00045528       0.01782056
Pt       4.21082079       2.43111832      19.95723449        4       0.00054185       0.00002824       0.01782323
Pt       7.01803484       2.43111842      19.95723441        4      -0.00020495       0.00000596       0.01854581
Pt       2.80721406       4.86223725      19.95723409        4       0.00020927       0.00020879       0.01849575
Pt       5.61442803       4.86223733      19.95723425        4       0.00010589       0.00017374       0.01854681
Pt       8.42164141       4.86223723      19.95723442        4       0.00009620      -0.00018068       0.01853042
Pt       1.40360730       0.81037260      22.29206788        3      -0.00037453      -0.00054014      -0.05219109
Pt       4.21082126       0.81037254      22.29206791        3       0.00065547      -0.00004753      -0.05219390
Pt       7.01803479       0.81037259      22.29206783        3       0.00039074      -0.00022779      -0.05292635
Pt       2.80721452       3.24149125      22.29206775        3      -0.00028573       0.00060790      -0.05222367
Pt       5.61442760       3.24149123      22.29206789        3      -0.00023110      -0.00114848      -0.04909082
Pt       8.42164156       3.24149116      22.29206803        3       0.00112761       0.00037937      -0.04909463
Pt       4.21082093       5.67260998      22.29206800        3      -0.00038829      -0.00021359      -0.05295772
Pt       7.01803487       5.67261039      22.29206775        3      -0.00088739       0.00078030      -0.04908835
Pt       9.82524824       5.67261062      22.29206803        3       0.00001408       0.00043951      -0.05296624
Pt      -0.00000058       1.62074570      24.58417378        2       0.00153845       0.00877831       0.02658777
Pt       2.80721444       1.62074548      24.58417392        2      -0.00000540      -0.00004335       0.03961382
Pt       5.61442778       1.62074537      24.58417373        2      -0.00068969       0.00973592       0.03279549
Pt       1.40360636       4.05186440      24.58417384        2      -0.00811603      -0.00546316       0.03278122
Pt       4.21082088       4.05186399      24.58417380        2       0.00684214      -0.00574335       0.02655107
Pt       7.01803502       4.05186406      24.58417406        2      -0.00001243      -0.00000444       0.00467153
Pt       2.80721280       6.48298341      24.58417369        2      -0.00000287       0.00002056      -0.00175691
Pt       5.61442796       6.48298324      24.58417387        2       0.00879042      -0.00429937       0.03282447
Pt       8.42164221       6.48298340      24.58417380        2      -0.00840486      -0.00306015       0.02661287
Pt      -0.00202784      -0.00065339      26.90689715        1       0.02191081       0.00881362       0.03472991
Pt       2.80941204      -0.00147352      26.91764569        1      -0.01020777       0.02063400      -0.01099787
Pt       5.61598516      -0.00143645      26.90690171        1      -0.01857590       0.01457803       0.03469876
Pt       1.40122930       2.42991948      26.91760791        1       0.02300809      -0.00144344      -0.01088631
Pt       4.21097266       2.43374759      26.91761406        1      -0.01278217      -0.01916616      -0.01088678
Pt       7.01904590       2.43702531      26.91732501        1      -0.00861176      -0.04776243      -0.00144518
Pt       2.80766274       4.86430168      26.90686972        1      -0.00336936      -0.02339110       0.03484664
Pt       5.61903078       4.85838352      26.91732518        1      -0.03703565       0.03136370      -0.00141030
Pt       8.41599613       4.86015390      26.91732462        1       0.04569604       0.01641850      -0.00142635
N        7.01809048       4.05191793      30.81911613        0       0.00007192       0.00003662      -0.00109054
H        6.81517447       4.97926522      30.42415059        0      -0.00496140       0.01578278       0.00378546
H        7.92268808       3.76400560      30.42420084        0       0.01598130      -0.00379422       0.00379278
H        6.31645874       3.41248943      30.42415417        0      -0.01108911      -0.01202643       0.00375798
