40
Lattice="8.421641763931781 0.0 0.0 4.2108208819658905 7.293355709136913 0.0 0.0 0.0 46.87624170604845" Properties=species:S:1:pos:R:3:tags:I:1:forces:R:3 charge=0 spin=0 energy=-206.4240501018441 free_energy=-206.4240501018441 stress="0.010470145381987095 -2.8767894733050525e-09 -3.6601970343497214e-09 -2.8767894733050525e-09 0.01047017052769661 -4.245681139991575e-09 -3.6601970343497214e-09 -4.245681139991575e-09 -0.00011077193630626425" pbc="T T T"
Pt      -0.00000003       0.00000022      19.95723434        4      -0.00070497      -0.00010052       0.01859524
Pt       2.80721396      -0.00000018      19.95723452        4      -0.00025680       0.00028756       0.01774832
Pt       5.61442778      -0.00000004      19.95723454        4       0.00043705      -0.00056131       0.01858192
Pt       1.40360719       2.43111838      19.95723440        4       0.00037503       0.00007687       0.01775143
Pt       4.21082079       2.43111832      19.95723449        4      -0.00011800      -0.00036070       0.01775228
Pt       7.01803484       2.43111842      19.95723441        4      -0.00000960       0.00011831       0.01875640
Pt       2.80721406       4.86223725      19.95723409        4       0.00027209       0.00066061       0.01859304
Pt       5.61442803       4.86223733      19.95723425        4       0.00010416      -0.00005363       0.01876365
Pt       8.42164141       4.86223723      19.95723442        4      -0.00009817      -0.00006855       0.01874885
Pt       1.40360730       0.81037260      22.29206788        3      -0.00088578      -0.00081011      -0.04931900
Pt       4.21082126       0.81037254      22.29206791        3       0.00113418      -0.00035858      -0.04932583
Pt       7.01803479       0.81037259      22.29206783        3       0.00060133       0.00059697      -0.05260639
Pt       2.80721452       3.24149125      22.29206775        3      -0.00026144       0.00117471      -0.04933629
Pt       5.61442760       3.24149123      22.29206789        3       0.00095080       0.00009899      -0.05253678
Pt       8.42164156       3.24149116      22.29206803        3      -0.00054816       0.00077467      -0.05253618
Pt       4.21082093       5.67260998      22.29206800        3       0.00021677      -0.00081240      -0.05261955
Pt       7.01803487       5.67261039      22.29206775        3      -0.00039978      -0.00087499      -0.05253529
Pt       9.82524824       5.67261062      22.29206803        3      -0.00080965       0.00021120      -0.05262803
Pt      -0.00000058       1.62074570      24.58417378        2       0.00274695      -0.00368475       0.03163054
Pt       2.80721444       1.62074548      24.58417392        2      -0.00000566      -0.00000493       0.02814625
Pt       5.61442778       1.62074537      24.58417373        2      -0.00086081      -0.00400528       0.03240637
Pt       1.40360636       4.05186440      24.58417384        2       0.00389704       0.00126185       0.03238689
Pt       4.21082088       4.05186399      24.58417380        2      -0.00455911      -0.00053069       0.03157958
Pt       7.01803502       4.05186406      24.58417406        2       0.00000318      -0.00000102       0.02676222
Pt       2.80721280       6.48298341      24.58417369        2       0.00000581       0.00001133       0.05510984
Pt       5.61442796       6.48298324      24.58417387        2      -0.00303407       0.00274594       0.03242613
Pt       8.42164221       6.48298340      24.58417380        2       0.00180983       0.00421270       0.03163732
Pt       0.00193367       0.00119706      26.91857032        1      -0.01363584      -0.00801776      -0.01194481
Pt       2.80771270      -0.00145801      26.91487210        1      -0.00095610       0.01002640       0.00458705
Pt       5.61242730       0.00108064      26.91857547        1       0.01375778      -0.00779667      -0.01190919
Pt       1.40209384       2.43141733      26.91485981        1       0.00920018      -0.00420478       0.00447647
Pt       4.21183616       2.43228030      26.91486294        1      -0.00823533      -0.00584270       0.00450822
Pt       7.01776299       2.42784839      26.91440469        1      -0.00060662       0.01024317       0.00216611
Pt       2.80728174       4.85996401      26.91855253        1      -0.00012463       0.01581253      -0.01203805
Pt       5.61172890       4.86410966      26.91439693        1       0.00913433      -0.00458607       0.00213044
Pt       8.42461323       4.86363824      26.91439915        1      -0.00853513      -0.00563872       0.00212856
N        7.01803269       4.05185925      30.77669990        0       0.00005765       0.00006413      -0.02696426
H        6.20005792       3.57054889      30.38039130        0      -0.01063330      -0.00639933       0.01295310
H        7.01019120       5.00090870      30.38040439        0      -0.00022543       0.01231744       0.01299169
H        7.84385234       3.58413222      30.38039413        0       0.01079997      -0.00598171       0.01298180
