40
Lattice="8.421641763931781 0.0 0.0 4.2108208819658905 7.293355709136913 0.0 0.0 0.0 46.87624170604845" Properties=species:S:1:pos:R:3:tags:I:1:forces:R:3 charge=0 spin=0 energy=-206.4283511730111 free_energy=-206.4283511730111 stress="0.010428294539451599 -6.475193270460977e-09 1.0349135770582052e-08 -6.475193270460977e-09 0.010428263805806637 -1.2403427263052436e-07 1.0349135770582052e-08 -1.2403427263052436e-07 -0.00018632980936672539" pbc="T T T"
Pt      -0.00000003       0.00000022      19.95723434        4      -0.00027952       0.00020056       0.01839193
Pt       2.80721396      -0.00000018      19.95723452        4      -0.00022591      -0.00034528       0.01791528
Pt       5.61442778      -0.00000004      19.95723454        4      -0.00003608      -0.00034382       0.01837766
Pt       1.40360719       2.43111838      19.95723440        4      -0.00018767       0.00036654       0.01791257
Pt       4.21082079       2.43111832      19.95723449        4       0.00041458      -0.00001870       0.01791308
Pt       7.01803484       2.43111842      19.95723441        4      -0.00010638      -0.00037805       0.01856180
Pt       2.80721406       4.86223725      19.95723409        4       0.00032009       0.00014288       0.01838379
Pt       5.61442803       4.86223733      19.95723425        4      -0.00027662       0.00027863       0.01856992
Pt       8.42164141       4.86223723      19.95723442        4       0.00038005       0.00009566       0.01855419
Pt       1.40360730       0.81037260      22.29206788        3      -0.00082968      -0.00091419      -0.04912081
Pt       4.21082126       0.81037254      22.29206791        3       0.00120081      -0.00025892      -0.04912615
Pt       7.01803479       0.81037259      22.29206783        3       0.00044902       0.00009586      -0.05318570
Pt       2.80721452       3.24149125      22.29206775        3      -0.00038065       0.00118139      -0.04915768
Pt       5.61442760       3.24149123      22.29206789        3       0.00057567      -0.00036608      -0.05188313
Pt       8.42164156       3.24149116      22.29206803        3       0.00004224       0.00068620      -0.05188416
Pt       4.21082093       5.67260998      22.29206800        3      -0.00013782      -0.00043406      -0.05320938
Pt       7.01803487       5.67261039      22.29206775        3      -0.00061469      -0.00031977      -0.05187253
Pt       9.82524824       5.67261062      22.29206803        3      -0.00029838       0.00032263      -0.05321762
Pt      -0.00000058       1.62074570      24.58417378        2       0.01150333       0.00099451       0.02816986
Pt       2.80721444       1.62074548      24.58417392        2      -0.00000149      -0.00004338       0.03707359
Pt       5.61442778       1.62074537      24.58417373        2      -0.01019303       0.00026095       0.02948285
Pt       1.40360636       4.05186440      24.58417384        2       0.00484350      -0.00896929       0.02940823
Pt       4.21082088       4.05186399      24.58417380        2      -0.00485747      -0.01047942       0.02808539
Pt       7.01803502       4.05186406      24.58417406        2      -0.00000312      -0.00001164      -0.01449678
Pt       2.80721280       6.48298341      24.58417369        2       0.00000415       0.00005207       0.01070317
Pt       5.61442796       6.48298324      24.58417387        2       0.00535134       0.00870427       0.02950151
Pt       8.42164221       6.48298340      24.58417380        2      -0.00665789       0.00947627       0.02817526
Pt      -0.00369439      -0.00134716      26.91196815        1       0.02872219       0.01381460       0.01404831
Pt       2.80746209       0.00140712      26.91919139        1       0.00012804       0.00202017      -0.01730786
Pt       5.61743494      -0.00252827      26.91197229        1      -0.02627122       0.01803211       0.01403927
Pt       1.40470382       2.43019286      26.91914506        1       0.00166452      -0.00109780      -0.01713732
Pt       4.20947307       2.43062809      26.91915190        1      -0.00178001      -0.00090956      -0.01715896
Pt       7.01751237       2.43466877      26.90941950        1       0.00042245      -0.03277456       0.03177190
Pt       2.80789692       4.86611691      26.91192016        1      -0.00245331      -0.03181905       0.01411042
Pt       5.61776625       4.86091612      26.90940962        1      -0.02862375       0.01601762       0.03167334
Pt       8.41882462       4.86001389      26.90940973        1       0.02819354       0.01673536       0.03168214
N        7.01803579       4.05186477      30.93414362        0      -0.00000615       0.00004103       0.00346080
H        6.20164540       4.53592968      30.53847649        0      -0.01153686       0.00684973       0.00093503
H        7.84544090       4.51684727      30.53847151        0       0.01170760       0.00656355       0.00093322
H        7.00701727       3.10281960      30.53847366        0      -0.00016549      -0.01344899       0.00092370
