40
Lattice="8.421641763931781 0.0 0.0 4.2108208819658905 7.293355709136913 0.0 0.0 0.0 46.87624170604845" Properties=species:S:1:pos:R:3:tags:I:1:forces:R:3 charge=0 spin=0 energy=-206.42404628714684 free_energy=-206.42404628714684 stress="0.010470198467373848 1.3278340205147288e-08 -1.3256246100823432e-10 1.3278340205147288e-08 0.010470196604728699 6.675993091675991e-09 -1.3256246100823432e-10 6.675993091675991e-09 -0.00011070572509197518" pbc="T T T"
Pt      -0.00000003       0.00000022      19.95723434        4      -0.00070477      -0.00010038       0.01859533
Pt       2.80721396      -0.00000018      19.95723452        4      -0.00025680       0.00028774       0.01774813
Pt       5.61442778      -0.00000004      19.95723454        4       0.00043714      -0.00056125       0.01858197
Pt       1.40360719       2.43111838      19.95723440        4       0.00037485       0.00007664       0.01775124
Pt       4.21082079       2.43111832      19.95723449        4      -0.00011799      -0.00036083       0.01775224
Pt       7.01803484       2.43111842      19.95723441        4      -0.00000954       0.00011808       0.01875652
Pt       2.80721406       4.86223725      19.95723409        4       0.00027212       0.00066082       0.01859321
Pt       5.61442803       4.86223733      19.95723425        4       0.00010389      -0.00005358       0.01876380
Pt       8.42164141       4.86223723      19.95723442        4      -0.00009790      -0.00006843       0.01874870
Pt       1.40360730       0.81037260      22.29206788        3      -0.00088598      -0.00081066      -0.04931765
Pt       4.21082126       0.81037254      22.29206791        3       0.00113433      -0.00035856      -0.04932522
Pt       7.01803479       0.81037259      22.29206783        3       0.00060092       0.00059715      -0.05260705
Pt       2.80721452       3.24149125      22.29206775        3      -0.00026191       0.00117485      -0.04933653
Pt       5.61442760       3.24149123      22.29206789        3       0.00095120       0.00009904      -0.05253726
Pt       8.42164156       3.24149116      22.29206803        3      -0.00054811       0.00077494      -0.05253730
Pt       4.21082093       5.67260998      22.29206800        3       0.00021736      -0.00081248      -0.05261861
Pt       7.01803487       5.67261039      22.29206775        3      -0.00040004      -0.00087549      -0.05253690
Pt       9.82524824       5.67261062      22.29206803        3      -0.00081007       0.00021055      -0.05262776
Pt      -0.00000058       1.62074570      24.58417378        2       0.00274729      -0.00368839       0.03164603
Pt       2.80721444       1.62074548      24.58417392        2      -0.00000733      -0.00000616       0.02815032
Pt       5.61442778       1.62074537      24.58417373        2      -0.00085974      -0.00400712       0.03241691
Pt       1.40360636       4.05186440      24.58417384        2       0.00390180       0.00126266       0.03239861
Pt       4.21082088       4.05186399      24.58417380        2      -0.00456150      -0.00052715       0.03159253
Pt       7.01803502       4.05186406      24.58417406        2       0.00000176      -0.00000240       0.02676665
Pt       2.80721280       6.48298341      24.58417369        2       0.00000792       0.00001030       0.05512484
Pt       5.61442796       6.48298324      24.58417387        2      -0.00303810       0.00274784       0.03243992
Pt       8.42164221       6.48298340      24.58417380        2       0.00181087       0.00421548       0.03164694
Pt       0.00193254       0.00119622      26.91857479        1      -0.01362723      -0.00801688      -0.01196833
Pt       2.80771250      -0.00145746      26.91487318        1      -0.00095458       0.01002403       0.00457840
Pt       5.61242874       0.00108012      26.91857957        1       0.01374899      -0.00779496      -0.01191941
Pt       1.40209445       2.43141695      26.91486081        1       0.00919422      -0.00420415       0.00446763
Pt       4.21183552       2.43228016      26.91486392        1      -0.00822988      -0.00584060       0.00450707
Pt       7.01776302       2.42784844      26.91440569        1      -0.00060538       0.01023899       0.00215426
Pt       2.80728156       4.85996540      26.91855748        1      -0.00012814       0.01580618      -0.01206290
Pt       5.61172895       4.86410948      26.91439869        1       0.00912819      -0.00458389       0.00211963
Pt       8.42461308       4.86363817      26.91440034        1      -0.00853109      -0.00563696       0.00212627
N        7.01803287       4.05186024      30.77662887        0      -0.00000959      -0.00005146      -0.02692932
H        7.01019173       5.00090943      30.38033840        0      -0.00022516       0.01239818       0.01294844
H        7.84385311       3.58413150      30.38032746        0       0.01081626      -0.00598249       0.01297085
H        6.20005663       3.57054841      30.38032423        0      -0.01057851      -0.00635931       0.01297790
