40
Lattice="8.421641763931781 0.0 0.0 4.2108208819658905 7.293355709136913 0.0 0.0 0.0 46.87624170604845" Properties=species:S:1:pos:R:3:tags:I:1:forces:R:3 charge=0 spin=0 energy=-206.42411495169762 free_energy=-206.42411495169762 stress="0.010515122674405575 7.855937012024583e-10 -2.015685929279698e-08 7.855937012024583e-10 0.0105151841416955 4.8348475445436634e-08 -2.015685929279698e-08 4.8348475445436634e-08 -1.8694503523875028e-05" pbc="T T T"
Pt      -0.00000003       0.00000022      19.95723434        4      -0.00075470      -0.00021079       0.01857533
Pt       2.80721396      -0.00000018      19.95723452        4      -0.00017620       0.00001199       0.01787096
Pt       5.61442778      -0.00000004      19.95723454        4       0.00055605      -0.00055177       0.01856322
Pt       1.40360719       2.43111838      19.95723440        4       0.00009518       0.00014433       0.01787822
Pt       4.21082079       2.43111832      19.95723449        4       0.00008010      -0.00015222       0.01787919
Pt       7.01803484       2.43111842      19.95723441        4      -0.00002230       0.00032153       0.01875652
Pt       2.80721406       4.86223725      19.95723409        4       0.00020258       0.00075978       0.01857035
Pt       5.61442803       4.86223733      19.95723425        4       0.00028810      -0.00014464       0.01875631
Pt       8.42164141       4.86223723      19.95723442        4      -0.00027035      -0.00018102       0.01874221
Pt       1.40360730       0.81037260      22.29206788        3      -0.00009864      -0.00016245      -0.05198082
Pt       4.21082126       0.81037254      22.29206791        3       0.00018197       0.00000697      -0.05198721
Pt       7.01803479       0.81037259      22.29206783        3       0.00047376       0.00075990      -0.05115797
Pt       2.80721452       3.24149125      22.29206775        3      -0.00010121       0.00017203      -0.05199806
Pt       5.61442760       3.24149123      22.29206789        3       0.00032266      -0.00024126      -0.05170356
Pt       8.42164156       3.24149116      22.29206803        3       0.00005898       0.00040945      -0.05170346
Pt       4.21082093       5.67260998      22.29206800        3       0.00041578      -0.00078340      -0.05117404
Pt       7.01803487       5.67261039      22.29206775        3      -0.00038605      -0.00015476      -0.05170673
Pt       9.82524824       5.67261062      22.29206803        3      -0.00089060       0.00002480      -0.05118017
Pt      -0.00000058       1.62074570      24.58417378        2      -0.00589424      -0.00016016       0.04311344
Pt       2.80721444       1.62074548      24.58417392        2      -0.00000111       0.00000759       0.03607449
Pt       5.61442778       1.62074537      24.58417373        2       0.00759802       0.00013494       0.04398802
Pt       1.40360636       4.05186440      24.58417384        2      -0.00389697       0.00653860       0.04401101
Pt       4.21082088       4.05186399      24.58417380        2       0.00279903       0.00522436       0.04309881
Pt       7.01803502       4.05186406      24.58417406        2      -0.00000117       0.00000920       0.05910145
Pt       2.80721280       6.48298341      24.58417369        2       0.00000913       0.00001054       0.05539351
Pt       5.61442796       6.48298324      24.58417387        2      -0.00369397      -0.00665433       0.04400815
Pt       8.42164221       6.48298340      24.58417380        2       0.00309970      -0.00504312       0.04311403
Pt       0.00181604       0.00083034      26.91818815        1      -0.01124878      -0.00551053      -0.01238192
Pt       2.80780462      -0.00373638      26.91430759        1      -0.00134358       0.02057398       0.00394874
Pt       5.61280284       0.00116292      26.91819022        1       0.01039868      -0.00697880      -0.01233084
Pt       1.40007229       2.43248021      26.91430392        1       0.01850138      -0.00914746       0.00385005
Pt       4.21376384       2.43350329      26.91430509        1      -0.01716429      -0.01145647       0.00387056
Pt       7.01795925       2.42894263      26.92336331        1      -0.00149754       0.00990911      -0.03196599
Pt       2.80702057       4.86025420      26.91818312        1       0.00086999       0.01246659      -0.01251133
Pt       5.61257737       4.86339596      26.92336279        1       0.00930856      -0.00367951      -0.03207504
Pt       8.42356581       4.86326648      26.92336307        1      -0.00781330      -0.00627557      -0.03203375
N        7.01803327       4.05185816      30.84219899        0      -0.00000257       0.00002839      -0.02909555
H        7.01096115       4.99989006      30.44365271        0      -0.00030529       0.02308442       0.01261765
H        7.84258808       3.58396910      30.44364934        0       0.02016547      -0.01128877       0.01260300
H        6.20055143       3.57171948      30.44364933        0      -0.01986237      -0.01182145       0.01260156
