40
Lattice="8.421641763931781 0.0 0.0 4.2108208819658905 7.293355709136913 0.0 0.0 0.0 46.87624170604845" Properties=species:S:1:pos:R:3:tags:I:1:forces:R:3 charge=0 spin=0 energy=-206.42591167410973 free_energy=-206.42591167410973 stress="0.010472279042005539 -6.926573092869148e-08 -8.52634407522146e-09 -6.926573092869148e-08 0.010472365655004978 -2.522369157986759e-08 -8.52634407522146e-09 -2.522369157986759e-08 -0.00011261281179031357" pbc="T T T"
Pt      -0.00000003       0.00000022      19.95723434        4      -0.00071280      -0.00002923       0.01853648
Pt       2.80721396      -0.00000018      19.95723452        4      -0.00023685       0.00014262       0.01781747
Pt       5.61442778      -0.00000004      19.95723454        4       0.00038059      -0.00060244       0.01852389
Pt       1.40360719       2.43111838      19.95723440        4       0.00023769       0.00013465       0.01782126
Pt       4.21082079       2.43111832      19.95723449        4      -0.00000161      -0.00026691       0.01782294
Pt       7.01803484       2.43111842      19.95723441        4       0.00002308       0.00018714       0.01872582
Pt       2.80721406       4.86223725      19.95723409        4       0.00033700       0.00063455       0.01853207
Pt       5.61442803       4.86223733      19.95723425        4       0.00014608      -0.00011323       0.01873021
Pt       8.42164141       4.86223723      19.95723442        4      -0.00017297      -0.00007245       0.01871564
Pt       1.40360730       0.81037260      22.29206788        3      -0.00068315      -0.00033855      -0.05023904
Pt       4.21082126       0.81037254      22.29206791        3       0.00063310      -0.00041292      -0.05024607
Pt       7.01803479       0.81037259      22.29206783        3       0.00055092       0.00063055      -0.05212142
Pt       2.80721452       3.24149125      22.29206775        3       0.00003930       0.00077720      -0.05025223
Pt       5.61442760       3.24149123      22.29206789        3       0.00065101      -0.00005987      -0.05214069
Pt       8.42164156       3.24149116      22.29206803        3      -0.00025185       0.00060615      -0.05214412
Pt       4.21082093       5.67260998      22.29206800        3       0.00026372      -0.00077348      -0.05213457
Pt       7.01803487       5.67261039      22.29206775        3      -0.00039188      -0.00052103      -0.05213993
Pt       9.82524824       5.67261062      22.29206803        3      -0.00080481       0.00015886      -0.05214407
Pt      -0.00000058       1.62074570      24.58417378        2       0.00103686      -0.00146113       0.03289238
Pt       2.80721444       1.62074548      24.58417392        2      -0.00000561      -0.00003152       0.02685978
Pt       5.61442778       1.62074537      24.58417373        2       0.00186522      -0.00100066       0.02923319
Pt       1.40360636       4.05186440      24.58417384        2      -0.00009539       0.00210558       0.02925185
Pt       4.21082088       4.05186399      24.58417380        2      -0.00174502      -0.00017533       0.03287233
Pt       7.01803502       4.05186406      24.58417406        2      -0.00000676      -0.00001102       0.03403957
Pt       2.80721280       6.48298341      24.58417369        2       0.00000549      -0.00001448       0.04670352
Pt       5.61442796       6.48298324      24.58417387        2      -0.00177994      -0.00117958       0.02928312
Pt       8.42164221       6.48298340      24.58417380        2       0.00071327       0.00156419       0.03291242
Pt       0.00255399      -0.00042458      26.91641799        1      -0.01538171      -0.00083094      -0.00409518
Pt       2.80622839      -0.00171120      26.91423038        1       0.00692209       0.00912042       0.00654977
Pt       5.61349039       0.00238133      26.91641948        1       0.00842434      -0.01285379      -0.00405459
Pt       1.40263945       2.43278216      26.91421626        1       0.00446631      -0.01055834       0.00645675
Pt       4.21276729       2.43107985      26.91421947        1      -0.01137917       0.00145819       0.00647990
Pt       7.01808843       2.42826155      26.91629759        1       0.00092200       0.01228837      -0.00365928
Pt       2.80559212       4.86019336      26.91640497        1       0.00695629       0.01374196      -0.00421769
Pt       5.61195238       4.86357276      26.91630855        1       0.01012061      -0.00691931      -0.00375612
Pt       8.42405808       4.86366979      26.91630472        1      -0.01105043      -0.00532098      -0.00372698
N        7.01809891       4.05167734      30.84172847        0       0.00001894       0.00008528      -0.03297421
H        7.35575823       4.93909073      30.44561243        0       0.00206993       0.00074355       0.01375154
H        7.61739161       3.31608084      30.44400809        0      -0.00051650      -0.00197760       0.01377781
H        6.08100405       3.90103726      30.44475272        0      -0.00156734       0.00114549       0.01375640
