40
Lattice="8.421641763931781 0.0 0.0 4.2108208819658905 7.293355709136913 0.0 0.0 0.0 46.87624170604845" Properties=species:S:1:pos:R:3:tags:I:1:forces:R:3 charge=0 spin=0 energy=-206.42404628714684 free_energy=-206.42404628714684 stress="0.010470169596374035 1.4328943365171654e-08 2.8115441086384863e-09 1.4328943365171654e-08 0.010470183566212654 -1.546562045096067e-10 2.8115441086384863e-09 -1.546562045096067e-10 -0.0001107614953070879" pbc="T T T"
Pt      -0.00000003       0.00000022      19.95723434        4      -0.00070478      -0.00010059       0.01859518
Pt       2.80721396      -0.00000018      19.95723452        4      -0.00025697       0.00028768       0.01774798
Pt       5.61442778      -0.00000004      19.95723454        4       0.00043715      -0.00056139       0.01858190
Pt       1.40360719       2.43111838      19.95723440        4       0.00037503       0.00007683       0.01775131
Pt       4.21082079       2.43111832      19.95723449        4      -0.00011798      -0.00036070       0.01775224
Pt       7.01803484       2.43111842      19.95723441        4      -0.00000968       0.00011832       0.01875659
Pt       2.80721406       4.86223725      19.95723409        4       0.00027226       0.00066063       0.01859306
Pt       5.61442803       4.86223733      19.95723425        4       0.00010405      -0.00005368       0.01876384
Pt       8.42164141       4.86223723      19.95723442        4      -0.00009817      -0.00006846       0.01874857
Pt       1.40360730       0.81037260      22.29206788        3      -0.00088594      -0.00081032      -0.04931847
Pt       4.21082126       0.81037254      22.29206791        3       0.00113435      -0.00035859      -0.04932533
Pt       7.01803479       0.81037259      22.29206783        3       0.00060129       0.00059721      -0.05260700
Pt       2.80721452       3.24149125      22.29206775        3      -0.00026156       0.00117490      -0.04933587
Pt       5.61442760       3.24149123      22.29206789        3       0.00095132       0.00009897      -0.05253610
Pt       8.42164156       3.24149116      22.29206803        3      -0.00054832       0.00077487      -0.05253697
Pt       4.21082093       5.67260998      22.29206800        3       0.00021682      -0.00081244      -0.05261908
Pt       7.01803487       5.67261039      22.29206775        3      -0.00039983      -0.00087545      -0.05253684
Pt       9.82524824       5.67261062      22.29206803        3      -0.00081004       0.00021094      -0.05262832
Pt      -0.00000058       1.62074570      24.58417378        2       0.00274715      -0.00368871       0.03163752
Pt       2.80721444       1.62074548      24.58417392        2      -0.00000560      -0.00000565       0.02814405
Pt       5.61442778       1.62074537      24.58417373        2      -0.00086127      -0.00400647       0.03241089
Pt       1.40360636       4.05186440      24.58417384        2       0.00390028       0.00126179       0.03238754
Pt       4.21082088       4.05186399      24.58417380        2      -0.00456016      -0.00052988       0.03158178
Pt       7.01803502       4.05186406      24.58417406        2       0.00000162      -0.00000259       0.02675902
Pt       2.80721280       6.48298341      24.58417369        2       0.00000744       0.00001231       0.05511860
Pt       5.61442796       6.48298324      24.58417387        2      -0.00303792       0.00274756       0.03243043
Pt       8.42164221       6.48298340      24.58417380        2       0.00181110       0.00421558       0.03163836
Pt       0.00193355       0.00119649      26.91857250        1      -0.01363599      -0.00801549      -0.01196309
Pt       2.80771246      -0.00145776      26.91487211        1      -0.00095315       0.01002594       0.00458754
Pt       5.61242784       0.00108035      26.91857699        1       0.01375723      -0.00779498      -0.01191617
Pt       1.40209423       2.43141690      26.91486015        1       0.00919378      -0.00420574       0.00447647
Pt       4.21183556       2.43228025      26.91486320        1      -0.00822831      -0.00584457       0.00450828
Pt       7.01776291       2.42784831      26.91440448        1      -0.00060683       0.01023864       0.00216376
Pt       2.80728205       4.85996442      26.91855477        1      -0.00013083       0.01581296      -0.01204587
Pt       5.61172877       4.86410954      26.91439686        1       0.00913271      -0.00458603       0.00212913
Pt       8.42461299       4.86363804      26.91439880        1      -0.00853251      -0.00563558       0.00213498
N        7.01803363       4.05186014      30.77666216        0      -0.00003430       0.00001397      -0.02697274
H        7.84385284       3.58413194      30.38035911        0       0.01081791      -0.00598648       0.01297031
H        6.20005689       3.57054829      30.38035624        0      -0.01056062      -0.00635656       0.01298877
H        7.01019147       5.00090922      30.38036778        0      -0.00022062       0.01233135       0.01298366
