40
Lattice="8.421641763931781 0.0 0.0 4.2108208819658905 7.293355709136913 0.0 0.0 0.0 46.87624170604845" Properties=species:S:1:pos:R:3:tags:I:1:forces:R:3 charge=0 spin=0 energy=-206.42412067374352 free_energy=-206.42412067374352 stress="0.010430325753986835 1.0108669812325388e-07 1.7233120486181974e-09 1.0108669812325388e-07 0.01043033692985773 -9.9311376899891e-09 1.7233120486181974e-09 -9.9311376899891e-09 -0.00017859978834167123" pbc="T T T"
Pt      -0.00000003       0.00000022      19.95723434        4      -0.00027777       0.00007150       0.01850591
Pt       2.80721396      -0.00000018      19.95723452        4      -0.00025039      -0.00047753       0.01782079
Pt       5.61442778      -0.00000004      19.95723454        4       0.00007403      -0.00027851       0.01849369
Pt       1.40360719       2.43111838      19.95723440        4      -0.00028936       0.00045502       0.01782050
Pt       4.21082079       2.43111832      19.95723449        4       0.00054161       0.00002853       0.01782340
Pt       7.01803484       2.43111842      19.95723441        4      -0.00020533       0.00000571       0.01854560
Pt       2.80721406       4.86223725      19.95723409        4       0.00020919       0.00020893       0.01849528
Pt       5.61442803       4.86223733      19.95723425        4       0.00010541       0.00017346       0.01854664
Pt       8.42164141       4.86223723      19.95723442        4       0.00009632      -0.00018059       0.01853076
Pt       1.40360730       0.81037260      22.29206788        3      -0.00037423      -0.00053998      -0.05219045
Pt       4.21082126       0.81037254      22.29206791        3       0.00065536      -0.00004813      -0.05219345
Pt       7.01803479       0.81037259      22.29206783        3       0.00039146      -0.00022789      -0.05292531
Pt       2.80721452       3.24149125      22.29206775        3      -0.00028470       0.00060800      -0.05222341
Pt       5.61442760       3.24149123      22.29206789        3      -0.00023154      -0.00114792      -0.04909186
Pt       8.42164156       3.24149116      22.29206803        3       0.00112754       0.00037940      -0.04909492
Pt       4.21082093       5.67260998      22.29206800        3      -0.00038782      -0.00021430      -0.05295646
Pt       7.01803487       5.67261039      22.29206775        3      -0.00088649       0.00078030      -0.04909151
Pt       9.82524824       5.67261062      22.29206803        3       0.00001405       0.00043937      -0.05296601
Pt      -0.00000058       1.62074570      24.58417378        2       0.00153861       0.00877516       0.02658268
Pt       2.80721444       1.62074548      24.58417392        2      -0.00000644      -0.00004198       0.03961929
Pt       5.61442778       1.62074537      24.58417373        2      -0.00069331       0.00973276       0.03279741
Pt       1.40360636       4.05186440      24.58417384        2      -0.00811217      -0.00546314       0.03278309
Pt       4.21082088       4.05186399      24.58417380        2       0.00683503      -0.00574451       0.02654972
Pt       7.01803502       4.05186406      24.58417406        2      -0.00001115      -0.00000455       0.00466200
Pt       2.80721280       6.48298341      24.58417369        2      -0.00000655       0.00002152      -0.00175428
Pt       5.61442796       6.48298324      24.58417387        2       0.00878723      -0.00429397       0.03282342
Pt       8.42164221       6.48298340      24.58417380        2      -0.00840549      -0.00305727       0.02661340
Pt      -0.00202909      -0.00065307      26.90689764        1       0.02192609       0.00880119       0.03472628
Pt       2.80941240      -0.00147359      26.91764614        1      -0.01020643       0.02063992      -0.01099870
Pt       5.61598547      -0.00143785      26.90690350        1      -0.01858231       0.01457805       0.03469231
Pt       1.40122949       2.42991882      26.91760884        1       0.02298507      -0.00144062      -0.01086064
Pt       4.21097208       2.43374771      26.91761467        1      -0.01278217      -0.01917189      -0.01088926
Pt       7.01904599       2.43702450      26.91732256        1      -0.00861294      -0.04775491      -0.00143541
Pt       2.80766316       4.86430239      26.90687089        1      -0.00336872      -0.02339407       0.03483983
Pt       5.61903032       4.85838382      26.91732274        1      -0.03701173       0.03136436      -0.00142056
Pt       8.41599673       4.86015433      26.91732224        1       0.04570053       0.01641215      -0.00141588
N        7.01809162       4.05191880      30.81914603        0      -0.00010799       0.00000075      -0.00112523
H        6.31646353       3.41248364      30.42417964        0      -0.01100506      -0.01195633       0.00381089
H        6.81516676       4.97926387      30.42417780        0      -0.00495029       0.01577684       0.00379166
H        7.92268923       3.76401405      30.42422836        0       0.01606289      -0.00381447       0.00375870
