40
Lattice="8.421641763931781 0.0 0.0 4.2108208819658905 7.293355709136913 0.0 0.0 0.0 46.87624170604845" Properties=species:S:1:pos:R:3:tags:I:1:forces:R:3 charge=0 spin=0 energy=-206.426159629432 free_energy=-206.426159629432 stress="0.010511181317269802 -3.6037889117324085e-07 -2.330890147561604e-08 -3.6037889117324085e-07 0.010511468164622784 -4.203040191441687e-07 -2.330890147561604e-08 -4.203040191441687e-07 -1.7226257114089094e-05" pbc="T T T"
Pt      -0.00000003       0.00000022      19.95723434        4      -0.00068846      -0.00015311       0.01858773
Pt       2.80721396      -0.00000018      19.95723452        4      -0.00029013      -0.00003282       0.01786318
Pt       5.61442778      -0.00000004      19.95723454        4       0.00047704      -0.00051496       0.01858137
Pt       1.40360719       2.43111838      19.95723440        4       0.00011086       0.00026525       0.01786677
Pt       4.21082079       2.43111832      19.95723449        4       0.00017426      -0.00021553       0.01787584
Pt       7.01803484       2.43111842      19.95723441        4      -0.00004438       0.00012656       0.01875544
Pt       2.80721406       4.86223725      19.95723409        4       0.00022180       0.00067055       0.01858137
Pt       5.61442803       4.86223733      19.95723425        4       0.00012402      -0.00002193       0.01876657
Pt       8.42164141       4.86223723      19.95723442        4      -0.00008835      -0.00009907       0.01875478
Pt       1.40360730       0.81037260      22.29206788        3      -0.00033085      -0.00015588      -0.05111259
Pt       4.21082126       0.81037254      22.29206791        3       0.00028775      -0.00023151      -0.05112166
Pt       7.01803479       0.81037259      22.29206783        3       0.00049589       0.00081395      -0.05144868
Pt       2.80721452       3.24149125      22.29206775        3      -0.00000011       0.00040906      -0.05105537
Pt       5.61442760       3.24149123      22.29206789        3       0.00056894      -0.00019672      -0.05234288
Pt       8.42164156       3.24149116      22.29206803        3      -0.00007951       0.00059005      -0.05239231
Pt       4.21082093       5.67260998      22.29206800        3       0.00041652      -0.00080076      -0.05145355
Pt       7.01803487       5.67261039      22.29206775        3      -0.00046565      -0.00033609      -0.05235491
Pt       9.82524824       5.67261062      22.29206803        3      -0.00091919       0.00003186      -0.05149154
Pt      -0.00000058       1.62074570      24.58417378        2      -0.00135748      -0.00234097       0.04505691
Pt       2.80721444       1.62074548      24.58417392        2      -0.00000496      -0.00008745       0.03843054
Pt       5.61442778       1.62074537      24.58417373        2       0.00368777      -0.00137935       0.04553047
Pt       1.40360636       4.05186440      24.58417384        2      -0.00083660       0.00394536       0.04580680
Pt       4.21082088       4.05186399      24.58417380        2      -0.00104359       0.00240489       0.04520246
Pt       7.01803502       4.05186406      24.58417406        2      -0.00004656       0.00011282       0.04545723
Pt       2.80721280       6.48298341      24.58417369        2       0.00001970      -0.00004867       0.05688269
Pt       5.61442796       6.48298324      24.58417387        2      -0.00293685      -0.00281621       0.04584463
Pt       8.42164221       6.48298340      24.58417380        2       0.00257534      -0.00029147       0.04523688
Pt       0.00132163      -0.00057776      26.91951207        1      -0.00726492      -0.00084871      -0.01753273
Pt       2.80746250      -0.00234829      26.91609538        1       0.00033536       0.01352415      -0.00370273
Pt       5.61418756       0.00126547      26.91949859        1       0.00464449      -0.00535393      -0.01749213
Pt       1.40151601       2.43198840      26.91605735        1       0.01159692      -0.00709048      -0.00372166
Pt       4.21268876       2.43242027      26.91605394        1      -0.01192917      -0.00650818      -0.00367908
Pt       7.01869264       2.42974160      26.92034571        1      -0.00344311       0.00153514      -0.01968205
Pt       2.80617081       4.86129898      26.91948933        1       0.00262911       0.00670345      -0.01764499
Pt       5.61302427       4.86224670      26.92053932        1       0.00295522       0.00222788      -0.02017870
Pt       8.42240778       4.86337685      26.92049023        1       0.00045249      -0.00372374      -0.02008983
N        7.01805011       4.04817537      30.84497418        0       0.00008410       0.00130503      -0.03889298
H        6.07074864       4.04873645      30.44469241        0      -0.03453476      -0.00004387       0.01606677
H        7.48756171       4.87600685      30.45530333        0       0.01893882       0.02919279       0.01633576
H        7.49579614       3.23539907      30.43413224        0       0.01550801      -0.03056739       0.01590615
