40
Lattice="8.421641763931781 0.0 0.0 4.2108208819658905 7.293355709136913 0.0 0.0 0.0 46.87624170604845" Properties=species:S:1:pos:R:3:tags:I:1:forces:R:3 charge=0 spin=0 energy=-206.42445255240563 free_energy=-206.42445255240563 stress="0.010490459389984608 -1.089106582696786e-08 -1.2961662854138467e-08 -1.089106582696786e-08 0.010490454733371735 -1.738041266463597e-09 -1.2961662854138467e-08 -1.738041266463597e-09 -5.012927795178257e-05" pbc="T T T"
Pt      -0.00000003       0.00000022      19.95723434        4      -0.00069252      -0.00013035       0.01858330
Pt       2.80721396      -0.00000018      19.95723452        4      -0.00022275       0.00003831       0.01787911
Pt       5.61442778      -0.00000004      19.95723454        4       0.00045649      -0.00053602       0.01857037
Pt       1.40360719       2.43111838      19.95723440        4       0.00014173       0.00017162       0.01788384
Pt       4.21082079       2.43111832      19.95723449        4       0.00008107      -0.00020635       0.01788432
Pt       7.01803484       2.43111842      19.95723441        4      -0.00002964       0.00020444       0.01870707
Pt       2.80721406       4.86223725      19.95723409        4       0.00024063       0.00066592       0.01857932
Pt       5.61442803       4.86223733      19.95723425        4       0.00018984      -0.00007903       0.01871089
Pt       8.42164141       4.86223723      19.95723442        4      -0.00016339      -0.00012888       0.01869624
Pt       1.40360730       0.81037260      22.29206788        3      -0.00051323      -0.00054711      -0.05067430
Pt       4.21082126       0.81037254      22.29206791        3       0.00072227      -0.00016923      -0.05068180
Pt       7.01803479       0.81037259      22.29206783        3       0.00054525       0.00056392      -0.05207490
Pt       2.80721452       3.24149125      22.29206775        3      -0.00021989       0.00072239      -0.05069510
Pt       5.61442760       3.24149123      22.29206789        3       0.00060305      -0.00008499      -0.05195798
Pt       8.42164156       3.24149116      22.29206803        3      -0.00021408       0.00056901      -0.05195746
Pt       4.21082093       5.67260998      22.29206800        3       0.00021673      -0.00074873      -0.05209318
Pt       7.01803487       5.67261039      22.29206775        3      -0.00038526      -0.00047846      -0.05196143
Pt       9.82524824       5.67261062      22.29206803        3      -0.00075526       0.00017952      -0.05210217
Pt      -0.00000058       1.62074570      24.58417378        2       0.00020010      -0.00246213       0.03949451
Pt       2.80721444       1.62074548      24.58417392        2      -0.00000490      -0.00001045       0.03809851
Pt       5.61442778       1.62074537      24.58417373        2       0.00146559      -0.00272932       0.04056766
Pt       1.40360636       4.05186440      24.58417384        2       0.00162876       0.00262232       0.04052752
Pt       4.21082088       4.05186399      24.58417380        2      -0.00222411       0.00105282       0.03941752
Pt       7.01803502       4.05186406      24.58417406        2      -0.00000117      -0.00001360       0.03618864
Pt       2.80721280       6.48298341      24.58417369        2       0.00000622       0.00002335       0.05780973
Pt       5.61442796       6.48298324      24.58417387        2      -0.00309423       0.00010116       0.04057253
Pt       8.42164221       6.48298340      24.58417380        2       0.00202070       0.00140282       0.03949032
Pt       0.00171481       0.00119943      26.91879555        1      -0.01205174      -0.00770236      -0.01560407
Pt       2.80778182      -0.00262798      26.91604135        1      -0.00140737       0.01774077      -0.00220095
Pt       5.61253265       0.00088738      26.91879627        1       0.01268795      -0.00657459      -0.01556139
Pt       1.40104471       2.43193314      26.91602809        1       0.01610564      -0.00764941      -0.00231155
Pt       4.21281146       2.43292407      26.91602936        1      -0.01467525      -0.01010673      -0.00226865
Pt       7.01776096       2.42985338      26.91800215        1      -0.00086733      -0.00115212      -0.00941666
Pt       2.80739287       4.86014641      26.91876196        1      -0.00064480       0.01429530      -0.01564693
Pt       5.61346633       4.86310971      26.91798622        1      -0.00058839       0.00131024      -0.00940988
Pt       8.42287640       4.86262986      26.91798744        1       0.00144370      -0.00016163      -0.00940909
N        7.01803471       4.05185931      30.85119614        0       0.00008503      -0.00003019      -0.03003071
H        6.20369464       3.56798760      30.45121159        0      -0.03170653      -0.01907234       0.01278497
H        7.00615573       4.99904128      30.45122633        0      -0.00066575       0.03698302       0.01278648
H        7.84425498       3.58856210      30.45120747        0       0.03228719      -0.01787291       0.01282539
