40
Lattice="8.421641763931781 0.0 0.0 4.2108208819658905 7.293355709136913 0.0 0.0 0.0 46.87624170604845" Properties=species:S:1:pos:R:3:tags:I:1:forces:R:3 charge=0 spin=0 energy=-206.42611576041344 free_energy=-206.42611576041344 stress="0.010513580404222012 -3.52418254578879e-08 1.4876453846568438e-08 -3.52418254578879e-08 0.010513730347156525 -1.2651614156311553e-07 1.4876453846568438e-08 -1.2651614156311553e-07 -1.4146065041131806e-05" pbc="T T T"
Pt      -0.00000003       0.00000022      19.95723434        4      -0.00069735      -0.00011482       0.01855551
Pt       2.80721396      -0.00000018      19.95723452        4      -0.00009008      -0.00004937       0.01789223
Pt       5.61442778      -0.00000004      19.95723454        4       0.00044505      -0.00054626       0.01854318
Pt       1.40360719       2.43111838      19.95723440        4      -0.00000054       0.00010610       0.01789993
Pt       4.21082079       2.43111832      19.95723449        4       0.00009363      -0.00004749       0.01789862
Pt       7.01803484       2.43111842      19.95723441        4      -0.00002060       0.00012019       0.01877953
Pt       2.80721406       4.86223725      19.95723409        4       0.00025486       0.00066046       0.01855022
Pt       5.61442803       4.86223733      19.95723425        4       0.00011232      -0.00004219       0.01878600
Pt       8.42164141       4.86223723      19.95723442        4      -0.00009286      -0.00007722       0.01876948
Pt       1.40360730       0.81037260      22.29206788        3      -0.00014147      -0.00057535      -0.05098888
Pt       4.21082126       0.81037254      22.29206791        3       0.00055390       0.00016277      -0.05099149
Pt       7.01803479       0.81037259      22.29206783        3       0.00042902       0.00076991      -0.05145162
Pt       2.80721452       3.24149125      22.29206775        3      -0.00041454       0.00042735      -0.05098196
Pt       5.61442760       3.24149123      22.29206789        3       0.00046675      -0.00017152      -0.05251310
Pt       8.42164156       3.24149116      22.29206803        3      -0.00006943       0.00049766      -0.05250273
Pt       4.21082093       5.67260998      22.29206800        3       0.00044374      -0.00073202      -0.05147338
Pt       7.01803487       5.67261039      22.29206775        3      -0.00039430      -0.00030044      -0.05250674
Pt       9.82524824       5.67261062      22.29206803        3      -0.00085579      -0.00002323      -0.05147512
Pt      -0.00000058       1.62074570      24.58417378        2      -0.00206625      -0.00160260       0.04534642
Pt       2.80721444       1.62074548      24.58417392        2      -0.00000508      -0.00004205       0.03742212
Pt       5.61442778       1.62074537      24.58417373        2       0.00302050      -0.00222308       0.04689617
Pt       1.40360636       4.05186440      24.58417384        2       0.00030802       0.00375666       0.04696763
Pt       4.21082088       4.05186399      24.58417380        2      -0.00026449       0.00260487       0.04538588
Pt       7.01803502       4.05186406      24.58417406        2      -0.00000035       0.00004244       0.04611448
Pt       2.80721280       6.48298341      24.58417369        2      -0.00000739      -0.00001006       0.05725924
Pt       5.61442796       6.48298324      24.58417387        2      -0.00339465      -0.00161861       0.04698724
Pt       8.42164221       6.48298340      24.58417380        2       0.00236508      -0.00111025       0.04545086
Pt       0.00021004       0.00133572      26.91974510        1      -0.00370913      -0.00525753      -0.01837904
Pt       2.80799437      -0.00219756      26.91608923        1      -0.00197983       0.01292760      -0.00373585
Pt       5.61312016      -0.00053945      26.91974951        1       0.00651091      -0.00039632      -0.01832137
Pt       1.40132881       2.43149947      26.91606418        1       0.01222035      -0.00476148      -0.00380881
Pt       4.21230162       2.43286060      26.91607009        1      -0.01023482      -0.00818688      -0.00375866
Pt       7.01694176       2.42991440      26.92055268        1       0.00179998       0.00055615      -0.02051971
Pt       2.80828917       4.86134268      26.91972992        1      -0.00279639       0.00584619      -0.01847363
Pt       5.61395725       4.86373747      26.92060771        1      -0.00046472      -0.00183421      -0.02069782
Pt       8.42317729       4.86185608      26.92061365        1      -0.00132595       0.00128104      -0.02072388
N        7.01804737       4.05057319      30.84193611        0      -0.00007490       0.00028262      -0.03926953
H        7.96525848       4.05630616      30.44147885        0       0.03461589       0.00171309       0.01633520
H        6.54783114       3.23012398      30.43774427        0      -0.01580632      -0.03094771       0.01633017
H        6.54102135       4.87073816      30.44521852        0      -0.01873277       0.02891565       0.01640334
