40
Lattice="8.421641763931781 0.0 0.0 4.2108208819658905 7.293355709136913 0.0 0.0 0.0 46.87624170604845" Properties=species:S:1:pos:R:3:tags:I:1:forces:R:3 charge=0 spin=0 energy=-206.4283511730111 free_energy=-206.4283511730111 stress="0.010428526438772678 1.001030724978591e-08 -4.6396861352882013e-10 1.001030724978591e-08 0.010428519919514656 -1.163567020512346e-07 -4.6396861352882013e-10 -1.163567020512346e-07 -0.00018601170449983329" pbc="T T T"
Pt      -0.00000003       0.00000022      19.95723434        4      -0.00027979       0.00020056       0.01839278
Pt       2.80721396      -0.00000018      19.95723452        4      -0.00022552      -0.00034630       0.01791524
Pt       5.61442778      -0.00000004      19.95723454        4      -0.00003567      -0.00034372       0.01837862
Pt       1.40360719       2.43111838      19.95723440        4      -0.00018876       0.00036684       0.01791242
Pt       4.21082079       2.43111832      19.95723449        4       0.00041525      -0.00001791       0.01791284
Pt       7.01803484       2.43111842      19.95723441        4      -0.00010663      -0.00037726       0.01856218
Pt       2.80721406       4.86223725      19.95723409        4       0.00032002       0.00014338       0.01838447
Pt       5.61442803       4.86223733      19.95723425        4      -0.00027589       0.00027846       0.01857022
Pt       8.42164141       4.86223723      19.95723442        4       0.00037939       0.00009532       0.01855455
Pt       1.40360730       0.81037260      22.29206788        3      -0.00082645      -0.00091265      -0.04913159
Pt       4.21082126       0.81037254      22.29206791        3       0.00119771      -0.00025787      -0.04913707
Pt       7.01803479       0.81037259      22.29206783        3       0.00044836       0.00009688      -0.05318087
Pt       2.80721452       3.24149125      22.29206775        3      -0.00038028       0.00117756      -0.04916841
Pt       5.61442760       3.24149123      22.29206789        3       0.00057295      -0.00036799      -0.05187798
Pt       8.42164156       3.24149116      22.29206803        3       0.00004506       0.00068408      -0.05187913
Pt       4.21082093       5.67260998      22.29206800        3      -0.00013707      -0.00043423      -0.05320511
Pt       7.01803487       5.67261039      22.29206775        3      -0.00061443      -0.00031616      -0.05186843
Pt       9.82524824       5.67261062      22.29206803        3      -0.00029896       0.00032175      -0.05321320
Pt      -0.00000058       1.62074570      24.58417378        2       0.01145774       0.00100782       0.02822184
Pt       2.80721444       1.62074548      24.58417392        2      -0.00000152      -0.00004401       0.03707180
Pt       5.61442778       1.62074537      24.58417373        2      -0.01014690       0.00027415       0.02953693
Pt       1.40360636       4.05186440      24.58417384        2       0.00480877      -0.00893825       0.02946155
Pt       4.21082088       4.05186399      24.58417380        2      -0.00482443      -0.01044582       0.02813833
Pt       7.01803502       4.05186406      24.58417406        2      -0.00000319      -0.00001157      -0.01440967
Pt       2.80721280       6.48298341      24.58417369        2       0.00000380       0.00005279       0.01074227
Pt       5.61442796       6.48298324      24.58417387        2       0.00534085       0.00865744       0.02955576
Pt       8.42164221       6.48298340      24.58417380        2      -0.00664493       0.00943121       0.02822725
Pt      -0.00369094      -0.00134525      26.91197061        1       0.02868388       0.01379313       0.01401387
Pt       2.80746258       0.00140088      26.91918504        1       0.00012420       0.00204588      -0.01728575
Pt       5.61743218      -0.00252619      26.91197614        1      -0.02623745       0.01801154       0.01400673
Pt       1.40469963       2.43019481      26.91913940        1       0.00168465      -0.00110472      -0.01711624
Pt       4.20947805       2.43063044      26.91914649        1      -0.00180040      -0.00092027      -0.01713882
Pt       7.01751260       2.43468246      26.90945446        1       0.00042060      -0.03287415       0.03162549
Pt       2.80789619       4.86611349      26.91192287        1      -0.00244948      -0.03178112       0.01407583
Pt       5.61777767       4.86090865      26.90944461        1      -0.02870660       0.01606972       0.03152447
Pt       8.41881247       4.86000740      26.90944396        1       0.02827822       0.01678268       0.03153509
N        7.01803598       4.05186458      30.93370404        0       0.00004569       0.00000494       0.00339198
H        7.84544661       4.51685266      30.53804290        0       0.01156150       0.00648223       0.00097565
H        7.00701972       3.10281153      30.53804431        0      -0.00016804      -0.01327172       0.00096789
H        6.20163841       4.53593181      30.53804913        0      -0.01143640       0.00678751       0.00095634
