40
Lattice="8.421641763931781 0.0 0.0 4.2108208819658905 7.293355709136913 0.0 0.0 0.0 46.87624170604845" Properties=species:S:1:pos:R:3:tags:I:1:forces:R:3 charge=0 spin=0 energy=-206.4280498119271 free_energy=-206.4280498119271 stress="0.010447496548295021 1.0595734067919693e-08 -1.849971198453204e-08 1.0595734067919693e-08 0.010447493754327297 -1.089958012734371e-09 -1.849971198453204e-08 -1.089958012734371e-09 -0.0001492291339673102" pbc="T T T"
Pt      -0.00000003       0.00000022      19.95723434        4      -0.00073533      -0.00012108       0.01849333
Pt       2.80721396      -0.00000018      19.95723452        4      -0.00012683       0.00012448       0.01775112
Pt       5.61442778      -0.00000004      19.95723454        4       0.00046884      -0.00057983       0.01848004
Pt       1.40360719       2.43111838      19.95723440        4       0.00016838       0.00004622       0.01775739
Pt       4.21082079       2.43111832      19.95723449        4      -0.00004114      -0.00016595       0.01775752
Pt       7.01803484       2.43111842      19.95723441        4      -0.00004099       0.00043310       0.01875616
Pt       2.80721406       4.86223725      19.95723409        4       0.00027069       0.00069753       0.01848608
Pt       5.61442803       4.86223733      19.95723425        4       0.00039410      -0.00018318       0.01875555
Pt       8.42164141       4.86223723      19.95723442        4      -0.00035618      -0.00025330       0.01874085
Pt       1.40360730       0.81037260      22.29206788        3      -0.00005332      -0.00011346      -0.05116856
Pt       4.21082126       0.81037254      22.29206791        3       0.00011635       0.00001042      -0.05117451
Pt       7.01803479       0.81037259      22.29206783        3       0.00048224       0.00053730      -0.05164668
Pt       2.80721452       3.24149125      22.29206775        3      -0.00007171       0.00010770      -0.05118885
Pt       5.61442760       3.24149123      22.29206789        3       0.00025367      -0.00027350      -0.05167678
Pt       8.42164156       3.24149116      22.29206803        3       0.00012571       0.00036415      -0.05167770
Pt       4.21082093       5.67260998      22.29206800        3       0.00022404      -0.00068355      -0.05166619
Pt       7.01803487       5.67261039      22.29206775        3      -0.00037632      -0.00008136      -0.05168126
Pt       9.82524824       5.67261062      22.29206803        3      -0.00070137       0.00013563      -0.05167422
Pt      -0.00000058       1.62074570      24.58417378        2      -0.00377914       0.00227922       0.02510756
Pt       2.80721444       1.62074548      24.58417392        2       0.00000122      -0.00000501       0.02101110
Pt       5.61442778       1.62074537      24.58417373        2       0.00522396       0.00247179       0.02570436
Pt       1.40360636       4.05186440      24.58417384        2      -0.00474259       0.00329802       0.02567814
Pt       4.21082088       4.05186399      24.58417380        2       0.00386229       0.00214814       0.02504796
Pt       7.01803502       4.05186406      24.58417406        2      -0.00000290      -0.00001436       0.04141177
Pt       2.80721280       6.48298341      24.58417369        2       0.00000364       0.00002049       0.04169703
Pt       5.61442796       6.48298324      24.58417387        2      -0.00048162      -0.00577303       0.02570517
Pt       8.42164221       6.48298340      24.58417380        2      -0.00008844      -0.00442832       0.02510029
Pt       0.00370013       0.00203548      26.91348291        1      -0.02533301      -0.01314269       0.00667977
Pt       2.80750797      -0.00263450      26.91251585        1       0.00063640       0.01122539       0.01411926
Pt       5.61081538       0.00218947      26.91348465        1       0.02405616      -0.01535730       0.00672835
Pt       1.40117704       2.43218035      26.91250917        1       0.00944006      -0.00617862       0.01402326
Pt       4.21295503       2.43269178      26.91251124        1      -0.01008035      -0.00506712       0.01405664
Pt       7.01761342       2.42811013      26.91832838        1       0.00056738       0.01566004      -0.01012822
Pt       2.80712345       4.85801556      26.91346135        1       0.00127844       0.02852148       0.00660999
Pt       5.61203163       4.86410599      26.91831376        1       0.01324872      -0.00831932      -0.01016594
Pt       8.42445766       4.86337692      26.91831455        1      -0.01382004      -0.00734127      -0.01014783
N        7.01803356       4.05185967      30.84813743        0       0.00004520       0.00000880      -0.01009959
H        6.20387486       4.53975071      30.45233652        0      -0.01272164       0.00773376       0.00680564
H        7.84763737       4.51300223      30.45233967        0       0.01302588       0.00713433       0.00682093
H        7.00259169       3.10283718      30.45232489        0      -0.00034025      -0.01487596       0.00681097
