40
Lattice="8.421641763931781 0.0 0.0 4.2108208819658905 7.293355709136913 0.0 0.0 0.0 46.87624170604845" Properties=species:S:1:pos:R:3:tags:I:1:forces:R:3 charge=0 spin=0 energy=-206.42799259146813 free_energy=-206.42799259146813 stress="0.010533928871154785 8.974835097319556e-09 -3.180302599048446e-08 8.974835097319556e-09 0.010534018278121948 2.526051190443468e-08 -3.180302599048446e-08 2.526051190443468e-08 1.736778904160019e-05" pbc="T T T"
Pt      -0.00000003       0.00000022      19.95723434        4      -0.00067613      -0.00014315       0.01852453
Pt       2.80721396      -0.00000018      19.95723452        4      -0.00015056      -0.00012901       0.01793032
Pt       5.61442778      -0.00000004      19.95723454        4       0.00045926      -0.00051513       0.01851180
Pt       1.40360719       2.43111838      19.95723440        4      -0.00004068       0.00019283       0.01793670
Pt       4.21082079       2.43111832      19.95723449        4       0.00019052      -0.00005976       0.01793714
Pt       7.01803484       2.43111842      19.95723441        4      -0.00002588       0.00007716       0.01880063
Pt       2.80721406       4.86223725      19.95723409        4       0.00022081       0.00065819       0.01851999
Pt       5.61442803       4.86223733      19.95723425        4       0.00007791      -0.00001875       0.01880186
Pt       8.42164141       4.86223723      19.95723442        4      -0.00005677      -0.00006145       0.01878797
Pt       1.40360730       0.81037260      22.29206788        3       0.00012133      -0.00007722      -0.05149482
Pt       4.21082126       0.81037254      22.29206791        3      -0.00000115       0.00015434      -0.05150278
Pt       7.01803479       0.81037259      22.29206783        3       0.00036130       0.00098773      -0.05069162
Pt       2.80721452       3.24149125      22.29206775        3      -0.00013735      -0.00005866      -0.05151789
Pt       5.61442760       3.24149123      22.29206789        3       0.00040365      -0.00022900      -0.05288192
Pt       8.42164156       3.24149116      22.29206803        3       0.00001196       0.00047752      -0.05288234
Pt       4.21082093       5.67260998      22.29206800        3       0.00066688      -0.00079748      -0.05071146
Pt       7.01803487       5.67261039      22.29206775        3      -0.00041749      -0.00023087      -0.05288526
Pt       9.82524824       5.67261062      22.29206803        3      -0.00102744      -0.00018582      -0.05072142
Pt      -0.00000058       1.62074570      24.58417378        2      -0.00397175      -0.00126594       0.05010774
Pt       2.80721444       1.62074548      24.58417392        2      -0.00000213      -0.00000999       0.03818824
Pt       5.61442778       1.62074537      24.58417373        2       0.00571057      -0.00073718       0.05139480
Pt       1.40360636       4.05186440      24.58417384        2      -0.00220767       0.00531741       0.05138717
Pt       4.21082088       4.05186399      24.58417380        2       0.00090235       0.00408953       0.05005719
Pt       7.01803502       4.05186406      24.58417406        2      -0.00000359      -0.00000988       0.05891320
Pt       2.80721280       6.48298341      24.58417369        2       0.00001488       0.00002199       0.05526428
Pt       5.61442796       6.48298324      24.58417387        2      -0.00349456      -0.00457281       0.05141880
Pt       8.42164221       6.48298340      24.58417380        2       0.00306751      -0.00282165       0.05009283
Pt      -0.00020228      -0.00018150      26.92004910        1       0.00097311       0.00127181      -0.02008423
Pt       2.80754742      -0.00209828      26.91590092        1       0.00009345       0.00950898      -0.00465067
Pt       5.61468257      -0.00008809      26.92004360        1      -0.00158001       0.00021057      -0.01999920
Pt       1.40162641       2.43186821      26.91588870        1       0.00819897      -0.00483018      -0.00469980
Pt       4.21246825       2.43244819      26.91588720        1      -0.00829611      -0.00466065      -0.00466621
Pt       7.01800462       2.42959341      26.92323840        1      -0.00140645       0.00738343      -0.03105746
Pt       2.80715941       4.86249592      26.92002139        1       0.00061474      -0.00148194      -0.02015734
Pt       5.61312366       4.86302689      26.92322698        1       0.00707831      -0.00251496      -0.03115025
Pt       8.42297459       4.86297204      26.92322478        1      -0.00567589      -0.00494625      -0.03111766
N        7.01803283       4.05186596      30.88834652        0       0.00002901      -0.00004913      -0.04655199
H        6.20855389       4.54376375      30.48722905        0      -0.02390545       0.01458912       0.01893748
H        7.84877111       4.50694708      30.48723186        0       0.02455807       0.01340147       0.01894829
H        6.99677781       3.10488503      30.48723104        0      -0.00067720      -0.02793516       0.01896339
