40
Lattice="8.421641763931781 0.0 0.0 4.2108208819658905 7.293355709136913 0.0 0.0 0.0 46.87624170604845" Properties=species:S:1:pos:R:3:tags:I:1:forces:R:3 charge=0 spin=0 energy=-206.42709423026207 free_energy=-206.42709423026207 stress="0.010525151155889034 -5.646111276291776e-07 -8.45233003587964e-08 -5.646111276291776e-07 0.01052540261298418 8.01008695816563e-07 -8.45233003587964e-08 8.01008695816563e-07 -1.9188712030882016e-05" pbc="T T T"
Pt      -0.00000003       0.00000022      19.95723434        4      -0.00052878       0.00003154       0.01849064
Pt       2.80721396      -0.00000018      19.95723452        4      -0.00017336      -0.00017455       0.01808911
Pt       5.61442778      -0.00000004      19.95723454        4       0.00023900      -0.00047018       0.01847629
Pt       1.40360719       2.43111838      19.95723440        4      -0.00007168       0.00022828       0.01808663
Pt       4.21082079       2.43111832      19.95723449        4       0.00023731      -0.00005197       0.01808746
Pt       7.01803484       2.43111842      19.95723441        4       0.00002881      -0.00014051       0.01864989
Pt       2.80721406       4.86223725      19.95723409        4       0.00029764       0.00044888       0.01848954
Pt       5.61442803       4.86223733      19.95723425        4      -0.00014099       0.00004257       0.01865005
Pt       8.42164141       4.86223723      19.95723442        4       0.00010224       0.00009669       0.01863922
Pt       1.40360730       0.81037260      22.29206788        3      -0.00069574      -0.00096999      -0.04927970
Pt       4.21082126       0.81037254      22.29206791        3       0.00119526      -0.00008356      -0.04930109
Pt       7.01803479       0.81037259      22.29206783        3       0.00046800       0.00071473      -0.05227015
Pt       2.80721452       3.24149125      22.29206775        3      -0.00053447       0.00109248      -0.04933736
Pt       5.61442760       3.24149123      22.29206789        3       0.00096584       0.00020452      -0.05362847
Pt       8.42164156       3.24149116      22.29206803        3      -0.00063355       0.00076055      -0.05366061
Pt       4.21082093       5.67260998      22.29206800        3       0.00038075      -0.00077362      -0.05227030
Pt       7.01803487       5.67261039      22.29206775        3      -0.00032335      -0.00094722      -0.05364979
Pt       9.82524824       5.67261062      22.29206803        3      -0.00086881       0.00005834      -0.05230950
Pt      -0.00000058       1.62074570      24.58417378        2       0.00620601      -0.00707313       0.04704078
Pt       2.80721444       1.62074548      24.58417392        2      -0.00000181      -0.00002312       0.03996586
Pt       5.61442778       1.62074537      24.58417373        2      -0.00500355      -0.00816111       0.04731121
Pt       1.40360636       4.05186440      24.58417384        2       0.00974110      -0.00037776       0.04715194
Pt       4.21082088       4.05186399      24.58417380        2      -0.00928290      -0.00190130       0.04677100
Pt       7.01803502       4.05186406      24.58417406        2      -0.00003503      -0.00010322       0.02096035
Pt       2.80721280       6.48298341      24.58417369        2       0.00007624       0.00006041       0.06394586
Pt       5.61442796       6.48298324      24.58417387        2      -0.00457395       0.00859429       0.04729547
Pt       8.42164221       6.48298340      24.58417380        2       0.00295622       0.00904026       0.04682832
Pt      -0.00125975       0.00053756      26.92242962        1       0.00379154      -0.00134517      -0.02867761
Pt       2.80750853       0.00018816      26.91854014        1       0.00036583       0.00180469      -0.01394858
Pt       5.61461973      -0.00133926      26.92238070        1      -0.00068334       0.00405788      -0.02842863
Pt       1.40363594       2.43074192      26.91851743        1       0.00142175      -0.00115768      -0.01398457
Pt       4.21052924       2.43127387      26.91849145        1      -0.00182429      -0.00060456      -0.01384491
Pt       7.01685826       2.43156794      26.91438099        1       0.00276576      -0.01228595       0.00720291
Pt       2.80829942       4.86304935      26.92236412        1      -0.00313144      -0.00253539      -0.02857437
Pt       5.61537969       4.86307892      26.91427698        1      -0.01192922       0.00363874       0.00756953
Pt       8.42189941       4.86098039      26.91425128        1       0.00916560       0.00856409       0.00767080
N        7.01798958       4.05451493      31.00031465        0       0.00007100      -0.00101801       0.03339393
H        6.53276946       4.86712307      30.59937099        0      -0.00881728       0.01271824      -0.01219662
H        7.96746994       4.06288233      30.60671916        0       0.01625182       0.00356722      -0.01187075
H        6.55385324       3.22270686      30.61411562        0      -0.00747422      -0.01552651      -0.01153358
