40
Lattice="8.421641763931781 0.0 0.0 4.2108208819658905 7.293355709136913 0.0 0.0 0.0 46.87624170604845" Properties=species:S:1:pos:R:3:tags:I:1:forces:R:3 charge=0 spin=0 energy=-206.4244563671029 free_energy=-206.4244563671029 stress="0.010490446351468563 2.231007822928177e-09 5.1340336426619615e-09 2.231007822928177e-09 0.01049045566469431 1.9030077069714935e-08 5.1340336426619615e-09 1.9030077069714935e-08 -5.016255090595223e-05" pbc="T T T"
Pt      -0.00000003       0.00000022      19.95723434        4      -0.00069231      -0.00013028       0.01858326
Pt       2.80721396      -0.00000018      19.95723452        4      -0.00022279       0.00003832       0.01787896
Pt       5.61442778      -0.00000004      19.95723454        4       0.00045628      -0.00053611       0.01857037
Pt       1.40360719       2.43111838      19.95723440        4       0.00014165       0.00017159       0.01788377
Pt       4.21082079       2.43111832      19.95723449        4       0.00008088      -0.00020632       0.01788437
Pt       7.01803484       2.43111842      19.95723441        4      -0.00002970       0.00020446       0.01870701
Pt       2.80721406       4.86223725      19.95723409        4       0.00024053       0.00066589       0.01857938
Pt       5.61442803       4.86223733      19.95723425        4       0.00018990      -0.00007899       0.01871074
Pt       8.42164141       4.86223723      19.95723442        4      -0.00016351      -0.00012886       0.01869628
Pt       1.40360730       0.81037260      22.29206788        3      -0.00051316      -0.00054734      -0.05067412
Pt       4.21082126       0.81037254      22.29206791        3       0.00072232      -0.00016915      -0.05068082
Pt       7.01803479       0.81037259      22.29206783        3       0.00054496       0.00056385      -0.05207529
Pt       2.80721452       3.24149125      22.29206775        3      -0.00021990       0.00072273      -0.05069481
Pt       5.61442760       3.24149123      22.29206789        3       0.00060301      -0.00008497      -0.05195833
Pt       8.42164156       3.24149116      22.29206803        3      -0.00021374       0.00056937      -0.05195910
Pt       4.21082093       5.67260998      22.29206800        3       0.00021666      -0.00074878      -0.05209313
Pt       7.01803487       5.67261039      22.29206775        3      -0.00038465      -0.00047866      -0.05196227
Pt       9.82524824       5.67261062      22.29206803        3      -0.00075502       0.00017943      -0.05210257
Pt      -0.00000058       1.62074570      24.58417378        2       0.00020233      -0.00246527       0.03949532
Pt       2.80721444       1.62074548      24.58417392        2      -0.00000455      -0.00001067       0.03809654
Pt       5.61442778       1.62074537      24.58417373        2       0.00146421      -0.00273091       0.04056633
Pt       1.40360636       4.05186440      24.58417384        2       0.00163042       0.00262152       0.04052451
Pt       4.21082088       4.05186399      24.58417380        2      -0.00222413       0.00105297       0.03941753
Pt       7.01803502       4.05186406      24.58417406        2      -0.00000314      -0.00001288       0.03618285
Pt       2.80721280       6.48298341      24.58417369        2       0.00000832       0.00002425       0.05781378
Pt       5.61442796       6.48298324      24.58417387        2      -0.00309642       0.00010247       0.04057524
Pt       8.42164221       6.48298340      24.58417380        2       0.00202072       0.00140476       0.03948816
Pt       0.00171430       0.00119966      26.91879584        1      -0.01205700      -0.00769547      -0.01561616
Pt       2.80778235      -0.00262790      26.91604132        1      -0.00141068       0.01774048      -0.00220150
Pt       5.61253262       0.00088718      26.91879632        1       0.01269779      -0.00656357      -0.01556807
Pt       1.40104495       2.43193305      26.91602834        1       0.01610206      -0.00765149      -0.00231085
Pt       4.21281165       2.43292395      26.91602976        1      -0.01467359      -0.01010737      -0.00226867
Pt       7.01776106       2.42985352      26.91800124        1      -0.00086828      -0.00115515      -0.00940856
Pt       2.80739297       4.86014657      26.91876265        1      -0.00063773       0.01429848      -0.01565015
Pt       5.61346650       4.86310969      26.91798524        1      -0.00059136       0.00131187      -0.00941166
Pt       8.42287679       4.86263008      26.91798607        1       0.00144341      -0.00016208      -0.00940288
N        7.01803550       4.05185959      30.85117569        0       0.00000281      -0.00003333      -0.03002812
H        7.84425513       3.58856154      30.45118870        0       0.03230924      -0.01788502       0.01280959
H        6.20369381       3.56798686      30.45119098        0      -0.03165140      -0.01904021       0.01280514
H        7.00615610       4.99904209      30.45120706        0      -0.00066447       0.03695024       0.01279806
