40
Lattice="8.421641763931781 0.0 0.0 4.2108208819658905 7.293355709136913 0.0 0.0 0.0 46.87624170604845" Properties=species:S:1:pos:R:3:tags:I:1:forces:R:3 charge=0 spin=0 energy=-206.42912937125328 free_energy=-206.42912937125328 stress="0.010527614504098892 3.044782559413761e-08 -4.790660312892214e-09 3.044782559413761e-08 0.010527699254453182 1.2037407515208542e-08 -4.790660312892214e-09 1.2037407515208542e-08 -4.10503926104866e-05" pbc="T T T"
Pt      -0.00000003       0.00000022      19.95723434        4      -0.00053720      -0.00001195       0.01845731
Pt       2.80721396      -0.00000018      19.95723452        4      -0.00023375      -0.00018962       0.01803615
Pt       5.61442778      -0.00000004      19.95723454        4       0.00027724      -0.00045780       0.01844310
Pt       1.40360719       2.43111838      19.95723440        4      -0.00005045       0.00029554       0.01803852
Pt       4.21082079       2.43111832      19.95723449        4       0.00028339      -0.00010000       0.01803721
Pt       7.01803484       2.43111842      19.95723441        4       0.00002811      -0.00012585       0.01864068
Pt       2.80721406       4.86223725      19.95723409        4       0.00026370       0.00047397       0.01845472
Pt       5.61442803       4.86223733      19.95723425        4      -0.00012729       0.00003856       0.01864919
Pt       8.42164141       4.86223723      19.95723442        4       0.00009516       0.00008808       0.01863614
Pt       1.40360730       0.81037260      22.29206788        3      -0.00054042      -0.00063667      -0.04938822
Pt       4.21082126       0.81037254      22.29206791        3       0.00081739      -0.00013115      -0.04939959
Pt       7.01803479       0.81037259      22.29206783        3       0.00048854       0.00086182      -0.05178778
Pt       2.80721452       3.24149125      22.29206775        3      -0.00029387       0.00079882      -0.04942160
Pt       5.61442760       3.24149123      22.29206789        3       0.00100259       0.00016606      -0.05391355
Pt       8.42164156       3.24149116      22.29206803        3      -0.00062661       0.00079544      -0.05392177
Pt       4.21082093       5.67260998      22.29206800        3       0.00049315      -0.00084031      -0.05179667
Pt       7.01803487       5.67261039      22.29206775        3      -0.00037044      -0.00094706      -0.05390462
Pt       9.82524824       5.67261062      22.29206803        3      -0.00097502      -0.00000830      -0.05181606
Pt      -0.00000058       1.62074570      24.58417378        2       0.00508723      -0.00735560       0.04284349
Pt       2.80721444       1.62074548      24.58417392        2      -0.00000188      -0.00006253       0.03556194
Pt       5.61442778       1.62074537      24.58417373        2      -0.00357559      -0.00715813       0.04336954
Pt       1.40360636       4.05186440      24.58417384        2       0.00795824       0.00045940       0.04336946
Pt       4.21082088       4.05186399      24.58417380        2      -0.00884610      -0.00072820       0.04279656
Pt       7.01803502       4.05186406      24.58417406        2      -0.00002399       0.00000521       0.02144643
Pt       2.80721280       6.48298341      24.58417369        2       0.00003980       0.00000558       0.05850576
Pt       5.61442796       6.48298324      24.58417387        2      -0.00438524       0.00666127       0.04347617
Pt       8.42164221       6.48298340      24.58417380        2       0.00375403       0.00804453       0.04286891
Pt      -0.00076850      -0.00049280      26.92130124        1       0.00205218       0.00159794      -0.02362703
Pt       2.80754309      -0.00010047      26.91715600        1       0.00014451       0.00209572      -0.00866987
Pt       5.61522656      -0.00044797      26.92127680        1      -0.00241781       0.00097501      -0.02347529
Pt       1.40338776       2.43083828      26.91711181        1       0.00174633      -0.00112739      -0.00862493
Pt       4.21072358       2.43142113      26.91710814        1      -0.00191558      -0.00091930      -0.00856868
Pt       7.01770179       2.43113361      26.91429240        1      -0.00002643      -0.00831454       0.00823386
Pt       2.80717990       4.86312089      26.92125894        1       0.00038834      -0.00254499      -0.02365661
Pt       5.61461019       4.86250910      26.91431436        1      -0.00720798       0.00412078       0.00803002
Pt       8.42178061       4.86190469      26.91430004        1       0.00724069       0.00418111       0.00809563
N        7.01803383       4.05186156      31.00743323        0       0.00005198       0.00001717      -0.00521915
H        6.99867833       3.10169505      30.61328102        0       0.00052076       0.01930690       0.00105988
H        6.20484385       4.54370981      30.61328271        0       0.01644609      -0.01010646       0.00105615
H        7.85058274       4.51018345      30.61328302        0      -0.01702396      -0.00922300       0.00108465
