40
Lattice="8.421641763931781 0.0 0.0 4.2108208819658905 7.293355709136913 0.0 0.0 0.0 46.87624170604845" Properties=species:S:1:pos:R:3:tags:I:1:forces:R:3 charge=0 spin=0 energy=-206.42616153678063 free_energy=-206.42616153678063 stress="0.010511154308915138 -3.5627314787234354e-07 -1.7461422530118398e-08 -3.5627314787234354e-07 0.010511436499655247 -4.2780854414559144e-07 -1.7461422530118398e-08 -4.2780854414559144e-07 -1.7260515960515477e-05" pbc="T T T"
Pt      -0.00000003       0.00000022      19.95723434        4      -0.00068839      -0.00015309       0.01858765
Pt       2.80721396      -0.00000018      19.95723452        4      -0.00029006      -0.00003272       0.01786303
Pt       5.61442778      -0.00000004      19.95723454        4       0.00047688      -0.00051483       0.01858139
Pt       1.40360719       2.43111838      19.95723440        4       0.00011090       0.00026506       0.01786670
Pt       4.21082079       2.43111832      19.95723449        4       0.00017404      -0.00021568       0.01787563
Pt       7.01803484       2.43111842      19.95723441        4      -0.00004431       0.00012657       0.01875536
Pt       2.80721406       4.86223725      19.95723409        4       0.00022174       0.00067070       0.01858114
Pt       5.61442803       4.86223733      19.95723425        4       0.00012404      -0.00002174       0.01876645
Pt       8.42164141       4.86223723      19.95723442        4      -0.00008839      -0.00009899       0.01875461
Pt       1.40360730       0.81037260      22.29206788        3      -0.00033079      -0.00015587      -0.05111269
Pt       4.21082126       0.81037254      22.29206791        3       0.00028788      -0.00023160      -0.05112207
Pt       7.01803479       0.81037259      22.29206783        3       0.00049596       0.00081392      -0.05144915
Pt       2.80721452       3.24149125      22.29206775        3      -0.00000044       0.00040858      -0.05105625
Pt       5.61442760       3.24149123      22.29206789        3       0.00056892      -0.00019652      -0.05234274
Pt       8.42164156       3.24149116      22.29206803        3      -0.00007905       0.00058993      -0.05239168
Pt       4.21082093       5.67260998      22.29206800        3       0.00041644      -0.00080086      -0.05145385
Pt       7.01803487       5.67261039      22.29206775        3      -0.00046531      -0.00033608      -0.05235462
Pt       9.82524824       5.67261062      22.29206803        3      -0.00091891       0.00003198      -0.05149128
Pt      -0.00000058       1.62074570      24.58417378        2      -0.00135734      -0.00233925       0.04505433
Pt       2.80721444       1.62074548      24.58417392        2      -0.00000520      -0.00008731       0.03843141
Pt       5.61442778       1.62074537      24.58417373        2       0.00368780      -0.00137781       0.04552813
Pt       1.40360636       4.05186440      24.58417384        2      -0.00083887       0.00394443       0.04580301
Pt       4.21082088       4.05186399      24.58417380        2      -0.00104163       0.00240414       0.04519971
Pt       7.01803502       4.05186406      24.58417406        2      -0.00004709       0.00011240       0.04545712
Pt       2.80721280       6.48298341      24.58417369        2       0.00001942      -0.00004857       0.05687818
Pt       5.61442796       6.48298324      24.58417387        2      -0.00293574      -0.00281654       0.04584141
Pt       8.42164221       6.48298340      24.58417380        2       0.00257424      -0.00029244       0.04523287
Pt       0.00132219      -0.00057748      26.91950984        1      -0.00726820      -0.00085058      -0.01752644
Pt       2.80746253      -0.00234896      26.91609480        1       0.00033375       0.01353153      -0.00370279
Pt       5.61418670       0.00126564      26.91949673        1       0.00465006      -0.00535351      -0.01748888
Pt       1.40151552       2.43198878      26.91605684        1       0.01159691      -0.00709267      -0.00372196
Pt       4.21268946       2.43242058      26.91605338        1      -0.01193194      -0.00651009      -0.00367987
Pt       7.01869237       2.42974185      26.92034613        1      -0.00344402       0.00153378      -0.01968247
Pt       2.80617044       4.86129823      26.91948750        1       0.00263152       0.00670765      -0.01763846
Pt       5.61302447       4.86224713      26.92054045        1       0.00295295       0.00222419      -0.02017734
Pt       8.42240739       4.86337648      26.92049119        1       0.00045584      -0.00372594      -0.02008860
N        7.01805065       4.04817429      30.84498055        0       0.00004905       0.00134115      -0.03888089
H        7.49579569       3.23540098      30.43413431        0       0.01553573      -0.03061298       0.01589078
H        6.07074970       4.04873643      30.44469612        0      -0.03453485      -0.00004376       0.01607519
H        7.48756142       4.87600650      30.45530832        0       0.01894613       0.02920348       0.01633806
