40
Lattice="8.421641763931781 0.0 0.0 4.2108208819658905 7.293355709136913 0.0 0.0 0.0 46.87624170604845" Properties=species:S:1:pos:R:3:tags:I:1:forces:R:3 charge=0 spin=0 energy=-206.42840839347008 free_energy=-206.42840839347008 stress="0.010261695832014084 -4.6491567218254204e-07 -3.0084315483236423e-08 -4.6491567218254204e-07 0.010261628776788712 -1.7453734812988841e-07 -3.0084315483236423e-08 -1.7453734812988841e-07 -0.0002623467589728534" pbc="T T T"
Pt      -0.00000003       0.00000022      19.95723434        4      -0.00059712       0.00106552       0.02018145
Pt       2.80721396      -0.00000018      19.95723452        4      -0.00000318       0.00000274       0.02018470
Pt       5.61442778      -0.00000004      19.95723454        4      -0.00057959       0.00188432       0.01972821
Pt       1.40360719       2.43111838      19.95723440        4      -0.00133521      -0.00144227       0.01973387
Pt       4.21082079       2.43111832      19.95723449        4       0.00122902      -0.00001310       0.02019494
Pt       7.01803484       2.43111842      19.95723441        4      -0.00000170       0.00000045      -0.00017634
Pt       2.80721406       4.86223725      19.95723409        4       0.00000194      -0.00000129       0.02024714
Pt       5.61442803       4.86223733      19.95723425        4       0.00191194      -0.00043949       0.01972751
Pt       8.42164141       4.86223723      19.95723442        4      -0.00062647      -0.00105686       0.02019704
Pt       1.40360730       0.81037260      22.29206788        3       0.00159099       0.00200984      -0.05978958
Pt       4.21082126       0.81037254      22.29206791        3       0.00096617      -0.00239432      -0.05976062
Pt       7.01803479       0.81037259      22.29206783        3      -0.00271930      -0.00450129      -0.04502519
Pt       2.80721452       3.24149125      22.29206775        3      -0.00150269       0.00160076      -0.05603920
Pt       5.61442760       3.24149123      22.29206789        3      -0.00250886       0.00459462      -0.04505086
Pt       8.42164156       3.24149116      22.29206803        3       0.00523540      -0.00008207      -0.04503837
Pt       4.21082093       5.67260998      22.29206800        3      -0.00063628      -0.00211751      -0.05608341
Pt       7.01803487       5.67261039      22.29206775        3      -0.00256470       0.00038170      -0.05980962
Pt       9.82524824       5.67261062      22.29206803        3       0.00213587       0.00052198      -0.05604488
Pt      -0.00000058       1.62074570      24.58417378        2      -0.02281413       0.01325747      -0.01495267
Pt       2.80721444       1.62074548      24.58417392        2       0.00274366      -0.00921225       0.01460256
Pt       5.61442778       1.62074537      24.58417373        2       0.02293389       0.01314735      -0.01506382
Pt       1.40360636       4.05186440      24.58417384        2       0.03741102       0.01759540       0.07025055
Pt       4.21082088       4.05186399      24.58417380        2      -0.03397534       0.02359251       0.07021604
Pt       7.01803502       4.05186406      24.58417406        2      -0.00009393      -0.02641630      -0.01499342
Pt       2.80721280       6.48298341      24.58417369        2      -0.00339146      -0.04121864       0.07028876
Pt       5.61442796       6.48298324      24.58417387        2       0.00656734       0.00703212       0.01467456
Pt       8.42164221       6.48298340      24.58417380        2      -0.00937730       0.00221096       0.01461217
Pt       0.00579928       0.00762078      26.90932986        1      -0.00408590      -0.00458707       0.00539114
Pt       2.80721393      -0.00000142      26.92159389        1      -0.00000138      -0.00000386       0.00069287
Pt       5.60894026       0.00718462      26.91069400        1       0.00350621      -0.00387444       0.00491606
Pt       1.40012920       2.42276463      26.91071219        1       0.00157500       0.00497583       0.00490022
Pt       4.21451321       2.42228720      26.90929520        1      -0.00189426       0.00582595       0.00543879
Pt       7.01803517       2.43111846      26.91840486        1       0.00000228      -0.00000499       0.00045842
Pt       2.80721376       4.86222492      26.93299456        1       0.00000139      -0.00001009       0.03848866
Pt       5.62339311       4.86340785      26.91068681        1      -0.00508816      -0.00112004       0.00497191
Pt       8.41214975       4.86344870      26.90929987        1       0.00598394      -0.00125750       0.00546479
N        2.80721105       4.86234565      29.83991966        0       0.00026532       0.00161142       0.04942747
H        2.31510048       4.01009278      29.56601778        0      -0.01238707      -0.02106020      -0.00269613
H        2.31526431       5.71453903      29.56526068        0      -0.01087168       0.01918370      -0.00212675
H        3.79128025       4.86198442      29.56563929        0       0.02299447       0.00031884      -0.00233895
