40
Lattice="8.421641763931781 0.0 0.0 4.2108208819658905 7.293355709136913 0.0 0.0 0.0 46.87624170604845" Properties=species:S:1:pos:R:3:tags:I:1:forces:R:3 charge=0 spin=0 energy=-206.42854190787438 free_energy=-206.42854190787438 stress="0.01026376336812973 -6.513051764578393e-10 -2.612953586833555e-08 -6.513051764578393e-10 0.010263676755130291 7.8911490675182e-09 -2.612953586833555e-08 7.8911490675182e-09 -0.0002590563672129065" pbc="T T T"
Pt      -0.00000003       0.00000022      19.95723434        4      -0.00041081       0.00104003       0.02005556
Pt       2.80721396      -0.00000018      19.95723452        4      -0.00000326       0.00000231       0.02010366
Pt       5.61442778      -0.00000004      19.95723454        4      -0.00060746       0.00202046       0.01990692
Pt       1.40360719       2.43111838      19.95723440        4      -0.00143938      -0.00153513       0.01991042
Pt       4.21082079       2.43111832      19.95723449        4       0.00111384      -0.00016132       0.02006918
Pt       7.01803484       2.43111842      19.95723441        4      -0.00000166       0.00000026      -0.00002167
Pt       2.80721406       4.86223725      19.95723409        4       0.00000194      -0.00000139       0.02031377
Pt       5.61442803       4.86223733      19.95723425        4       0.00204432      -0.00048360       0.01990597
Pt       8.42164141       4.86223723      19.95723442        4      -0.00069729      -0.00088279       0.02007043
Pt       1.40360730       0.81037260      22.29206788        3       0.00117540       0.00075374      -0.05888662
Pt       4.21082126       0.81037254      22.29206791        3       0.00008706      -0.00140591      -0.05885789
Pt       7.01803479       0.81037259      22.29206783        3      -0.00108491      -0.00487019      -0.04542099
Pt       2.80721452       3.24149125      22.29206775        3      -0.00073541       0.00158518      -0.05645384
Pt       5.61442760       3.24149123      22.29206789        3      -0.00364686       0.00335802      -0.04543887
Pt       8.42164156       3.24149116      22.29206803        3       0.00473780       0.00152039      -0.04542954
Pt       4.21082093       5.67260998      22.29206800        3      -0.00100707      -0.00144820      -0.05649356
Pt       7.01803487       5.67261039      22.29206775        3      -0.00126787       0.00065119      -0.05890438
Pt       9.82524824       5.67261062      22.29206803        3       0.00173794      -0.00013525      -0.05645500
Pt      -0.00000058       1.62074570      24.58417378        2      -0.02317227       0.01278883      -0.01426312
Pt       2.80721444       1.62074548      24.58417392        2       0.00340232      -0.00894135       0.01469469
Pt       5.61442778       1.62074537      24.58417373        2       0.02270601       0.01369187      -0.01436869
Pt       1.40360636       4.05186440      24.58417384        2       0.03675966       0.01809897       0.07004128
Pt       4.21082088       4.05186399      24.58417380        2      -0.03408346       0.02277065       0.07000230
Pt       7.01803502       4.05186406      24.58417406        2       0.00048838      -0.02649035      -0.01430716
Pt       2.80721280       6.48298341      24.58417369        2      -0.00262655      -0.04088628       0.07005227
Pt       5.61442796       6.48298324      24.58417387        2       0.00600489       0.00746491       0.01476614
Pt       8.42164221       6.48298340      24.58417380        2      -0.00947566       0.00150607       0.01470783
Pt       0.00558157       0.00701297      26.91009835        1      -0.00390396      -0.00414986       0.00488627
Pt       2.80721442      -0.00000093      26.92175511        1      -0.00000270      -0.00000162       0.00088668
Pt       5.60861355       0.00757026      26.91013566        1       0.00370263      -0.00410797       0.00504634
Pt       1.39995931       2.42228780      26.91015670        1       0.00168786       0.00527602       0.00501839
Pt       4.21409558       2.42278008      26.91006661        1      -0.00161440       0.00546261       0.00491551
Pt       7.01803494       2.43111876      26.91819567        1       0.00000323      -0.00000015       0.00044275
Pt       2.80721311       4.86223665      26.93297903        1      -0.00000018      -0.00000143       0.03796463
Pt       5.62389110       4.86349835      26.91013105        1      -0.00539467      -0.00116922       0.00508892
Pt       8.41278451       4.86356303      26.91006942        1       0.00552209      -0.00131912       0.00495823
N        2.80721178       4.86223349      29.84016516        0       0.00024343       0.00036993       0.04924660
H        3.65926040       5.35425342      29.56516676        0       0.01977925       0.01162412      -0.00251193
H        2.80728925       3.87833947      29.56516778        0       0.00017713      -0.02340655      -0.00265278
H        1.95509478       5.35412272      29.56516723        0      -0.02019939       0.01141203      -0.00258877
