40
Lattice="8.421641763931781 0.0 0.0 4.2108208819658905 7.293355709136913 0.0 0.0 0.0 46.87624170604845" Properties=species:S:1:pos:R:3:tags:I:1:forces:R:3 charge=0 spin=0 energy=-206.99357105216149 free_energy=-206.99357105216149 stress="0.0100394943729043 2.3253619474417064e-07 8.380893312676108e-09 2.3253619474417064e-07 0.010039499960839748 2.593925216842763e-07 8.380893312676108e-09 2.593925216842763e-07 -0.0001772363466443494" pbc="T T T"
Pt      -0.00000003       0.00000022      19.95723434        4      -0.00382452       0.00372905       0.02244879
Pt       2.80721396      -0.00000018      19.95723452        4      -0.00000302       0.00000244       0.02427807
Pt       5.61442778      -0.00000004      19.95723454        4       0.00268477       0.00425470       0.02108215
Pt       1.40360719       2.43111838      19.95723440        4      -0.00502360       0.00020488       0.02110001
Pt       4.21082079       2.43111832      19.95723449        4       0.00514654       0.00145895       0.02247178
Pt       7.01803484       2.43111842      19.95723441        4      -0.00000182       0.00000154      -0.04323516
Pt       2.80721406       4.86223725      19.95723409        4       0.00000194      -0.00000148       0.01847011
Pt       5.61442803       4.86223733      19.95723425        4       0.00233689      -0.00445655       0.02108241
Pt       8.42164141       4.86223723      19.95723442        4      -0.00131666      -0.00518808       0.02249341
Pt       1.40360730       0.81037260      22.29206788        3      -0.00103860      -0.00040984      -0.07535411
Pt       4.21082126       0.81037254      22.29206791        3       0.00020239       0.00109553      -0.07531184
Pt       7.01803479       0.81037259      22.29206783        3      -0.00266498       0.02619726      -0.08330192
Pt       2.80721452       3.24149125      22.29206775        3      -0.00302363       0.00217172      -0.04452519
Pt       5.61442760       3.24149123      22.29206789        3       0.02404594      -0.01081193      -0.08333294
Pt       8.42164156       3.24149116      22.29206803        3      -0.02137261      -0.01537116      -0.08334845
Pt       4.21082093       5.67260998      22.29206800        3      -0.00037824      -0.00374590      -0.04462183
Pt       7.01803487       5.67261039      22.29206775        3       0.00083039      -0.00067580      -0.07545341
Pt       9.82524824       5.67261062      22.29206803        3       0.00339762       0.00157756      -0.04458939
Pt      -0.00000058       1.62074570      24.58417378        2      -0.04418371       0.01502182      -0.06501789
Pt       2.80721444       1.62074548      24.58417392        2       0.00731464      -0.01040799       0.01464517
Pt       5.61442778       1.62074537      24.58417373        2       0.03516719       0.03075206      -0.06512467
Pt       1.40360636       4.05186440      24.58417384        2       0.13947889       0.07624914       0.24127440
Pt       4.21082088       4.05186399      24.58417380        2      -0.13577114       0.08265626       0.24125093
Pt       7.01803502       4.05186406      24.58417406        2       0.00900953      -0.04579616      -0.06488411
Pt       2.80721280       6.48298341      24.58417369        2      -0.00368528      -0.15891697       0.24117215
Pt       5.61442796       6.48298324      24.58417387        2       0.00536474       0.01147248       0.01486470
Pt       8.42164221       6.48298340      24.58417380        2      -0.01270244      -0.00109218       0.01479272
Pt       0.00646197       0.01361340      26.90866628        1       0.02525116       0.02164773      -0.02084337
Pt       2.80721729      -0.00000976      26.92785487        1      -0.00000551       0.00000903      -0.01782448
Pt       5.60593784       0.01820954      26.90590154        1      -0.01881694       0.01020118      -0.00254627
Pt       1.39206174       2.41462655      26.90590805        1       0.00065494      -0.02126889      -0.00254777
Pt       4.21939482       2.41869306      26.90866441        1       0.00602563      -0.03254659      -0.02097700
Pt       7.01803125       2.43110672      26.92670222        1       0.00000738       0.00001502      -0.00936698
Pt       2.80721317       4.86225756      26.99498325        1      -0.00000159      -0.00000955       0.03636538
Pt       5.63446266       4.86047470      26.90590680        1       0.01817053       0.01119098      -0.00255377
Pt       8.40660613       4.86100120      26.90866488        1      -0.03127926       0.01102160      -0.02090891
N        2.80721185       4.86225636      29.15756328        0       0.00015427       0.00073158      -0.03631313
H        2.32287634       4.01970717      29.49409377        0       0.02169038       0.03762519       0.00186646
H        2.31976673       5.70289390      29.49438580        0       0.02145870      -0.03718226       0.00096166
H        3.77900179       4.86417857      29.49423937        0      -0.04330091      -0.00140628       0.00136211
