40
Lattice="8.421641763931781 0.0 0.0 4.2108208819658905 7.293355709136913 0.0 0.0 0.0 46.87624170604845" Properties=species:S:1:pos:R:3:tags:I:1:forces:R:3 charge=0 spin=0 energy=-206.99317432364586 free_energy=-206.99317432364586 stress="0.010014032013714314 -7.956601422165477e-08 -1.137091309999505e-08 -7.956601422165477e-08 0.01001405157148838 3.3803428944878533e-09 -1.137091309999505e-08 3.3803428944878533e-09 -0.00022638820519205183" pbc="T T T"
Pt      -0.00000003       0.00000022      19.95723434        4      -0.00375233       0.00403656       0.02208499
Pt       2.80721396      -0.00000018      19.95723452        4      -0.00000291       0.00000215       0.02414669
Pt       5.61442778      -0.00000004      19.95723454        4       0.00252942       0.00453775       0.02146209
Pt       1.40360719       2.43111838      19.95723440        4      -0.00519017      -0.00007152       0.02148120
Pt       4.21082079       2.43111832      19.95723449        4       0.00537753       0.00124160       0.02210865
Pt       7.01803484       2.43111842      19.95723441        4      -0.00000188       0.00000051      -0.04331786
Pt       2.80721406       4.86223725      19.95723409        4       0.00000188      -0.00000097       0.01869745
Pt       5.61442803       4.86223733      19.95723425        4       0.00265837      -0.00446493       0.02146457
Pt       8.42164141       4.86223723      19.95723442        4      -0.00162012      -0.00528195       0.02213264
Pt       1.40360730       0.81037260      22.29206788        3      -0.00174004      -0.00134130      -0.07373381
Pt       4.21082126       0.81037254      22.29206791        3      -0.00025766       0.00216799      -0.07368434
Pt       7.01803479       0.81037259      22.29206783        3      -0.00145407       0.02618088      -0.08346627
Pt       2.80721452       3.24149125      22.29206775        3      -0.00225317       0.00242461      -0.04669751
Pt       5.61442760       3.24149123      22.29206789        3       0.02343111      -0.01185993      -0.08351202
Pt       8.42164156       3.24149116      22.29206803        3      -0.02197062      -0.01431457      -0.08352498
Pt       4.21082093       5.67260998      22.29206800        3      -0.00097725      -0.00320805      -0.04678703
Pt       7.01803487       5.67261039      22.29206775        3       0.00198836      -0.00082341      -0.07383185
Pt       9.82524824       5.67261062      22.29206803        3       0.00322655       0.00078579      -0.04675046
Pt      -0.00000058       1.62074570      24.58417378        2      -0.04199772       0.02139125      -0.08179848
Pt       2.80721444       1.62074548      24.58417392        2       0.00404349      -0.00840104       0.00948342
Pt       5.61442778       1.62074537      24.58417373        2       0.03959113       0.02568539      -0.08192402
Pt       1.40360636       4.05186440      24.58417384        2       0.14046822       0.07581604       0.24964531
Pt       4.21082088       4.05186399      24.58417380        2      -0.13586064       0.08375844       0.24960572
Pt       7.01803502       4.05186406      24.58417406        2       0.00240977      -0.04706212      -0.08164189
Pt       2.80721280       6.48298341      24.58417369        2      -0.00457130      -0.15956584       0.24964838
Pt       5.61442796       6.48298324      24.58417387        2       0.00524087       0.00764582       0.00975707
Pt       8.42164221       6.48298340      24.58417380        2      -0.00932083       0.00074246       0.00968388
Pt       0.01116642       0.01929486      26.90613521        1      -0.00264488      -0.01714162      -0.00725598
Pt       2.80721550      -0.00000386      26.92861343        1       0.00000760      -0.00001311      -0.00936388
Pt       5.60390682       0.01980144      26.90686326        1       0.00260174      -0.01730731      -0.00714687
Pt       1.39172747       2.41209155      26.90686467        1       0.01362745       0.01093183      -0.00713569
Pt       4.22193383       2.41180145      26.90611032        1      -0.01346458       0.01088302      -0.00728702
Pt       7.01803404       2.43112193      26.92229968        1      -0.00000101       0.00001057       0.00710802
Pt       2.80721422       4.86223813      26.99502651        1      -0.00000171       0.00000028       0.00945974
Pt       5.63683106       4.86146407      26.90686980        1      -0.01621699       0.00637313      -0.00717375
Pt       8.39936298       4.86225987      26.90612564        1       0.01609601       0.00624595      -0.00729645
N        2.80721346       4.86223703      29.15419613        0      -0.00002919      -0.00002090      -0.01988776
H        2.80938504       3.89043672      29.49103616        0      -0.00008684       0.04749563       0.00174783
H        1.96452370       5.34625510      29.49103762        0       0.04117575      -0.02366999       0.00174423
H        3.64773035       5.35001698      29.49103755        0      -0.04105948      -0.02380909       0.00175602
