40
Lattice="8.421641763931781 0.0 0.0 4.2108208819658905 7.293355709136913 0.0 0.0 0.0 46.87624170604845" Properties=species:S:1:pos:R:3:tags:I:1:forces:R:3 charge=0 spin=0 energy=-206.99323917349938 free_energy=-206.99323917349938 stress="0.009999281726777554 -8.625950442819885e-08 -1.0546080453366358e-08 -8.625950442819885e-08 0.009999453090131283 -7.065211349299716e-08 -1.0546080453366358e-08 -7.065211349299716e-08 -0.0002706537488847971" pbc="T T T"
Pt      -0.00000003       0.00000022      19.95723434        4      -0.00376296       0.00387413       0.02209088
Pt       2.80721396      -0.00000018      19.95723452        4      -0.00000236       0.00000177       0.02420400
Pt       5.61442778      -0.00000004      19.95723454        4       0.00260845       0.00444566       0.02148346
Pt       1.40360719       2.43111838      19.95723440        4      -0.00515145       0.00004229       0.02150195
Pt       4.21082079       2.43111832      19.95723449        4       0.00524325       0.00133121       0.02211459
Pt       7.01803484       2.43111842      19.95723441        4      -0.00000180       0.00000128      -0.04379360
Pt       2.80721406       4.86223725      19.95723409        4       0.00000198      -0.00000171       0.01853322
Pt       5.61442803       4.86223733      19.95723425        4       0.00254075      -0.00448594       0.02148223
Pt       8.42164141       4.86223723      19.95723442        4      -0.00147471      -0.00520841       0.02213637
Pt       1.40360730       0.81037260      22.29206788        3      -0.00171683      -0.00146917      -0.07476831
Pt       4.21082126       0.81037254      22.29206791        3      -0.00037950       0.00221309      -0.07471542
Pt       7.01803479       0.81037259      22.29206783        3      -0.00153164       0.02691092      -0.08490464
Pt       2.80721452       3.24149125      22.29206775        3      -0.00225089       0.00200644      -0.04518789
Pt       5.61442760       3.24149123      22.29206789        3       0.02409986      -0.01215285      -0.08495212
Pt       8.42164156       3.24149116      22.29206803        3      -0.02255966      -0.01474944      -0.08496342
Pt       4.21082093       5.67260998      22.29206800        3      -0.00062085      -0.00300082      -0.04527815
Pt       7.01803487       5.67261039      22.29206775        3       0.00208759      -0.00073954      -0.07486229
Pt       9.82524824       5.67261062      22.29206803        3       0.00287002       0.00098818      -0.04523939
Pt      -0.00000058       1.62074570      24.58417378        2      -0.04273924       0.02194357      -0.07170624
Pt       2.80721444       1.62074548      24.58417392        2       0.00378295      -0.00553227       0.00697026
Pt       5.61442778       1.62074537      24.58417373        2       0.04044041       0.02603591      -0.07181338
Pt       1.40360636       4.05186440      24.58417384        2       0.14034650       0.07536475       0.24317113
Pt       4.21082088       4.05186399      24.58417380        2      -0.13539663       0.08390665       0.24313132
Pt       7.01803502       4.05186406      24.58417406        2       0.00229948      -0.04798855      -0.07153352
Pt       2.80721280       6.48298341      24.58417369        2      -0.00493116      -0.15924376       0.24314360
Pt       5.61442796       6.48298324      24.58417387        2       0.00290549       0.00596362       0.00721647
Pt       8.42164221       6.48298340      24.58417380        2      -0.00670612      -0.00047582       0.00716136
Pt       0.00899647       0.01669630      26.90622030        1       0.01174705       0.00727971      -0.00935282
Pt       2.80721557       0.00000048      26.92362540        1       0.00000610      -0.00000962       0.00353269
Pt       5.60558348       0.01741471      26.90737230        1      -0.01039577       0.00659549      -0.01068887
Pt       1.39293415       2.41474572      26.90736417        1      -0.00049192      -0.01231754      -0.01063972
Pt       4.22079285       2.41498470      26.90620601        1       0.00039213      -0.01382061      -0.00941706
Pt       7.01803347       2.43111359      26.92574713        1      -0.00000050       0.00000922      -0.00857512
Pt       2.80721469       4.86223430      26.99499835        1      -0.00000103       0.00001259      -0.02668189
Pt       5.63394351       4.86118742      26.90738527        1       0.01090308       0.00573939      -0.01072283
Pt       8.40267912       4.86166682      26.90623019        1      -0.01215959       0.00654989      -0.00944785
N        2.80721522       4.86224399      29.14534213        0      -0.00010032      -0.00051241       0.04811214
H        3.64762615       5.34685267      29.48573409        0      -0.01461839      -0.00842574      -0.00217503
H        2.80669846       3.89210850      29.48573410        0      -0.00000710       0.01738164      -0.00234987
H        1.96731921       5.34774812      29.48573632        0       0.01472527      -0.00846298      -0.00221609
