40
Lattice="8.421641763931781 0.0 0.0 4.2108208819658905 7.293355709136913 0.0 0.0 0.0 46.87624170604845" Properties=species:S:1:pos:R:3:tags:I:1:forces:R:3 charge=0 spin=0 energy=-206.9929912181771 free_energy=-206.9929912181771 stress="0.010013504885137081 -5.614480613758133e-08 -1.5546746112704568e-08 -5.614480613758133e-08 0.010013505816459656 -4.271457143545376e-08 -1.5546746112704568e-08 -4.271457143545376e-08 -0.00022668066958431154" pbc="T T T"
Pt      -0.00000003       0.00000022      19.95723434        4      -0.00415358       0.00388608       0.02204943
Pt       2.80721396      -0.00000018      19.95723452        4      -0.00000255       0.00000217       0.02403770
Pt       5.61442778      -0.00000004      19.95723454        4       0.00283527       0.00436947       0.02140191
Pt       1.40360719       2.43111838      19.95723440        4      -0.00519914       0.00027872       0.02142180
Pt       4.21082079       2.43111832      19.95723449        4       0.00544915       0.00166413       0.02207244
Pt       7.01803484       2.43111842      19.95723441        4      -0.00000199       0.00000092      -0.04327522
Pt       2.80721406       4.86223725      19.95723409        4       0.00000219      -0.00000135       0.01877103
Pt       5.61442803       4.86223733      19.95723425        4       0.00236136      -0.00464636       0.02140221
Pt       8.42164141       4.86223723      19.95723442        4      -0.00129003      -0.00555354       0.02209674
Pt       1.40360730       0.81037260      22.29206788        3      -0.00185227      -0.00126581      -0.07629379
Pt       4.21082126       0.81037254      22.29206791        3      -0.00013177       0.00222514      -0.07624672
Pt       7.01803479       0.81037259      22.29206783        3      -0.00174312       0.02698225      -0.08225811
Pt       2.80721452       3.24149125      22.29206775        3      -0.00226204       0.00173648      -0.04532364
Pt       5.61442760       3.24149123      22.29206789        3       0.02426984      -0.01200972      -0.08230201
Pt       8.42164156       3.24149116      22.29206803        3      -0.02251961      -0.01496630      -0.08231103
Pt       4.21082093       5.67260998      22.29206800        3      -0.00038051      -0.00287501      -0.04541895
Pt       7.01803487       5.67261039      22.29206775        3       0.00197660      -0.00095784      -0.07639316
Pt       9.82524824       5.67261062      22.29206803        3       0.00264035       0.00113879      -0.04538058
Pt      -0.00000058       1.62074570      24.58417378        2      -0.04243277       0.02206183      -0.07777891
Pt       2.80721444       1.62074548      24.58417392        2       0.00433009      -0.00706251       0.00525377
Pt       5.61442778       1.62074537      24.58417373        2       0.04039076       0.02573224      -0.07790602
Pt       1.40360636       4.05186440      24.58417384        2       0.14058337       0.07651379       0.25026202
Pt       4.21082088       4.05186399      24.58417380        2      -0.13652712       0.08351377       0.25021330
Pt       7.01803502       4.05186406      24.58417406        2       0.00205150      -0.04778037      -0.07762833
Pt       2.80721280       6.48298341      24.58417369        2      -0.00402895      -0.16002345       0.25024921
Pt       5.61442796       6.48298324      24.58417387        2       0.00393355       0.00722367       0.00551854
Pt       8.42164221       6.48298340      24.58417380        2      -0.00830313      -0.00018675       0.00545001
Pt       0.01133200       0.01953261      26.90646796        1      -0.00377176      -0.01545708      -0.00768019
Pt       2.80721543      -0.00000618      26.92626527        1       0.00000294      -0.00001526      -0.00834054
Pt       5.60386242       0.01965332      26.90669825        1       0.00410297      -0.01611556      -0.00705975
Pt       1.39187888       2.41212975      26.90670285        1       0.01184348       0.01163916      -0.00704374
Pt       4.22205403       2.41154053      26.90644367        1      -0.01143923       0.01102252      -0.00770985
Pt       7.01803415       2.43112010      26.92456285        1      -0.00000439       0.00000806       0.00628673
Pt       2.80721336       4.86223761      26.99499366        1      -0.00000195       0.00000827       0.00850692
Pt       5.63672245       4.86156908      26.90670298        1      -0.01593342       0.00448143      -0.00707173
Pt       8.39907487       4.86227801      26.90646167        1       0.01520734       0.00443129      -0.00773118
N        2.80721556       4.86223798      29.15419788        0      -0.00010580      -0.00002830      -0.01947644
H        3.65024653       4.37888814      29.49105536        0      -0.04027530       0.02312387       0.00189822
H        1.96710410       4.37382460      29.49105678        0       0.04025821       0.02337527       0.00185583
H        2.80429111       5.83399947      29.49105668        0       0.00012145      -0.04647426       0.00188213
