40
Lattice="8.421641763931781 0.0 0.0 4.2108208819658905 7.293355709136913 0.0 0.0 0.0 46.87624170604845" Properties=species:S:1:pos:R:3:tags:I:1:forces:R:3 charge=0 spin=0 energy=-206.99357295951012 free_energy=-206.99357295951012 stress="0.01003946177661419 -3.369728460711485e-07 1.1753872541930832e-08 -3.369728460711485e-07 0.010039560496807098 -5.486613190441858e-07 1.1753872541930832e-08 -5.486613190441858e-07 -0.00017787249817047268" pbc="T T T"
Pt      -0.00000003       0.00000022      19.95723434        4      -0.00399889       0.00369975       0.02168431
Pt       2.80721396      -0.00000018      19.95723452        4      -0.00000190       0.00000200       0.02432512
Pt       5.61442778      -0.00000004      19.95723454        4       0.00265651       0.00430131       0.02175976
Pt       1.40360719       2.43111838      19.95723440        4      -0.00505014       0.00015588       0.02177888
Pt       4.21082079       2.43111832      19.95723449        4       0.00520879       0.00161947       0.02170622
Pt       7.01803484       2.43111842      19.95723441        4      -0.00000072       0.00000123      -0.04318839
Pt       2.80721406       4.86223725      19.95723409        4       0.00000186      -0.00000081       0.01864857
Pt       5.61442803       4.86223733      19.95723425        4       0.00239072      -0.00445552       0.02175762
Pt       8.42164141       4.86223723      19.95723442        4      -0.00120614      -0.00532391       0.02172963
Pt       1.40360730       0.81037260      22.29206788        3      -0.00228555      -0.00229712      -0.07568832
Pt       4.21082126       0.81037254      22.29206791        3      -0.00080940       0.00311046      -0.07563332
Pt       7.01803479       0.81037259      22.29206783        3      -0.00058586       0.02610487      -0.08317139
Pt       2.80721452       3.24149125      22.29206775        3      -0.00147237       0.00156287      -0.04441783
Pt       5.61442760       3.24149123      22.29206789        3       0.02293859      -0.01257289      -0.08324026
Pt       8.42164156       3.24149116      22.29206803        3      -0.02234693      -0.01352901      -0.08324768
Pt       4.21082093       5.67260998      22.29206800        3      -0.00062545      -0.00210542      -0.04451709
Pt       7.01803487       5.67261039      22.29206775        3       0.00308608      -0.00082070      -0.07579237
Pt       9.82524824       5.67261062      22.29206803        3       0.00209924       0.00054155      -0.04447236
Pt      -0.00000058       1.62074570      24.58417378        2      -0.03715346       0.02639515      -0.06483925
Pt       2.80721444       1.62074548      24.58417392        2       0.00079112      -0.01007993       0.01466313
Pt       5.61442778       1.62074537      24.58417373        2       0.04149015       0.01897050      -0.06492016
Pt       1.40360636       4.05186440      24.58417384        2       0.13990092       0.07518850       0.24115843
Pt       4.21082088       4.05186399      24.58417380        2      -0.13501026       0.08362476       0.24113244
Pt       7.01803502       4.05186406      24.58417406        2      -0.00433841      -0.04536887      -0.06467489
Pt       2.80721280       6.48298341      24.58417369        2      -0.00487587      -0.15886265       0.24140389
Pt       5.61442796       6.48298324      24.58417387        2       0.00832762       0.00568046       0.01492965
Pt       8.42164221       6.48298340      24.58417380        2      -0.00913327       0.00441739       0.01487900
Pt       0.00912700       0.01792487      26.90529914        1       0.02113920       0.00932958      -0.00273446
Pt       2.80721754       0.00000869      26.92862014        1      -0.00000110      -0.00003426      -0.01859229
Pt       5.60851354       0.01401611      26.90926409        1      -0.02589223       0.02001882      -0.02109379
Pt       1.39443601       2.41900676      26.90923724        1      -0.00453190      -0.03265537      -0.02099943
Pt       4.22176715       2.41428133      26.90527786        1      -0.00235738      -0.02317428      -0.00281681
Pt       7.01803197       2.43112676      26.92607277        1       0.00000577      -0.00003390      -0.00819156
Pt       2.80721531       4.86219105      26.99498176        1       0.00000200      -0.00017490       0.03574193
Pt       5.62951378       4.86037167      26.90924978        1       0.03040878       0.01243615      -0.02104720
Pt       8.40157160       4.86118794      26.90528899        1      -0.01876880       0.01363807      -0.00277503
N        2.80721222       4.86209177      29.15745694        0       0.00010479       0.00121431      -0.03601341
H        1.83539655       4.86098906      29.49405942        0       0.04362967      -0.00006760       0.00161330
H        3.29192803       5.70452781      29.49371750        0      -0.02089371      -0.03808441       0.00214190
H        3.29431391       4.02129246      29.49440277        0      -0.02284237       0.03762839       0.00101345
