40
Lattice="8.421641763931781 0.0 0.0 4.2108208819658905 7.293355709136913 0.0 0.0 0.0 46.87624170604845" Properties=species:S:1:pos:R:3:tags:I:1:forces:R:3 charge=0 spin=0 energy=-206.99356723746422 free_energy=-206.99356723746422 stress="0.010039501823484898 5.750242166868702e-07 6.399821117497595e-09 5.750242166868702e-07 0.0100394943729043 4.4405476273823297e-07 6.399821117497595e-09 4.4405476273823297e-07 -0.00017723256314639002" pbc="T T T"
Pt      -0.00000003       0.00000022      19.95723434        4      -0.00382461       0.00372922       0.02244873
Pt       2.80721396      -0.00000018      19.95723452        4      -0.00000305       0.00000230       0.02427809
Pt       5.61442778      -0.00000004      19.95723454        4       0.00268463       0.00425472       0.02108253
Pt       1.40360719       2.43111838      19.95723440        4      -0.00502354       0.00020479       0.02109992
Pt       4.21082079       2.43111832      19.95723449        4       0.00514643       0.00145882       0.02247184
Pt       7.01803484       2.43111842      19.95723441        4      -0.00000191       0.00000167      -0.04323529
Pt       2.80721406       4.86223725      19.95723409        4       0.00000202      -0.00000158       0.01847007
Pt       5.61442803       4.86223733      19.95723425        4       0.00233701      -0.00445641       0.02108249
Pt       8.42164141       4.86223723      19.95723442        4      -0.00131661      -0.00518808       0.02249328
Pt       1.40360730       0.81037260      22.29206788        3      -0.00103844      -0.00041003      -0.07535401
Pt       4.21082126       0.81037254      22.29206791        3       0.00020253       0.00109545      -0.07531141
Pt       7.01803479       0.81037259      22.29206783        3      -0.00266531       0.02619694      -0.08330165
Pt       2.80721452       3.24149125      22.29206775        3      -0.00302361       0.00217157      -0.04452541
Pt       5.61442760       3.24149123      22.29206789        3       0.02404593      -0.01081225      -0.08333259
Pt       8.42164156       3.24149116      22.29206803        3      -0.02137253      -0.01537137      -0.08334832
Pt       4.21082093       5.67260998      22.29206800        3      -0.00037801      -0.00374605      -0.04462269
Pt       7.01803487       5.67261039      22.29206775        3       0.00083018      -0.00067577      -0.07545391
Pt       9.82524824       5.67261062      22.29206803        3       0.00339750       0.00157758      -0.04458928
Pt      -0.00000058       1.62074570      24.58417378        2      -0.04418395       0.01502195      -0.06501917
Pt       2.80721444       1.62074548      24.58417392        2       0.00731438      -0.01040815       0.01464470
Pt       5.61442778       1.62074537      24.58417373        2       0.03516761       0.03075099      -0.06512297
Pt       1.40360636       4.05186440      24.58417384        2       0.13947849       0.07624867       0.24127415
Pt       4.21082088       4.05186399      24.58417380        2      -0.13577062       0.08265577       0.24125166
Pt       7.01803502       4.05186406      24.58417406        2       0.00900951      -0.04579653      -0.06488384
Pt       2.80721280       6.48298341      24.58417369        2      -0.00368671      -0.15891171       0.24116848
Pt       5.61442796       6.48298324      24.58417387        2       0.00536456       0.01147270       0.01486534
Pt       8.42164221       6.48298340      24.58417380        2      -0.01270074      -0.00109164       0.01479486
Pt       0.00646210       0.01361365      26.90866595        1       0.02525173       0.02164823      -0.02084352
Pt       2.80721728      -0.00000975      26.92785464        1      -0.00000500       0.00001001      -0.01782417
Pt       5.60593771       0.01820988      26.90590203        1      -0.01881733       0.01020284      -0.00255342
Pt       1.39206180       2.41462638      26.90590815        1       0.00065735      -0.02126487      -0.00254698
Pt       4.21939468       2.41869294      26.90866440        1       0.00602443      -0.03254316      -0.02097660
Pt       7.01803142       2.43110667      26.92670245        1       0.00000458       0.00001737      -0.00936675
Pt       2.80721332       4.86225919      26.99498255        1      -0.00000325       0.00000002       0.03638064
Pt       5.63446280       4.86047475      26.90590686        1       0.01817368       0.01119045      -0.00255370
Pt       8.40660611       4.86100115      26.90866552        1      -0.03127984       0.01102256      -0.02090885
N        2.80721176       4.86225917      29.15756371        0       0.00014130       0.00074365      -0.03633323
H        2.31978164       5.70290062      29.49439940        0       0.02029732      -0.03717930       0.00037927
H        3.77900227       4.86416144      29.49423857        0      -0.04329503      -0.00142637       0.00136911
H        2.32286055       4.01971338      29.49407802        0       0.02285895       0.03760523       0.00245257
