40
Lattice="8.421641763931781 0.0 0.0 4.2108208819658905 7.293355709136913 0.0 0.0 0.0 46.87624170604845" Properties=species:S:1:pos:R:3:tags:I:1:forces:R:3 charge=0 spin=0 energy=-206.4284103008187 free_energy=-206.4284103008187 stress="0.01026166882365942 -4.62471319906399e-07 -1.9118452598831936e-08 -4.62471319906399e-07 0.010261637158691883 -1.709098427227218e-07 -1.9118452598831936e-08 -1.709098427227218e-07 -0.00026234175311401486" pbc="T T T"
Pt      -0.00000003       0.00000022      19.95723434        4      -0.00059715       0.00106548       0.02018133
Pt       2.80721396      -0.00000018      19.95723452        4      -0.00000313       0.00000278       0.02018461
Pt       5.61442778      -0.00000004      19.95723454        4      -0.00057960       0.00188423       0.01972813
Pt       1.40360719       2.43111838      19.95723440        4      -0.00133509      -0.00144226       0.01973370
Pt       4.21082079       2.43111832      19.95723449        4       0.00122907      -0.00001315       0.02019485
Pt       7.01803484       2.43111842      19.95723441        4      -0.00000179       0.00000042      -0.00017657
Pt       2.80721406       4.86223725      19.95723409        4       0.00000208      -0.00000122       0.02024717
Pt       5.61442803       4.86223733      19.95723425        4       0.00191165      -0.00043944       0.01972757
Pt       8.42164141       4.86223723      19.95723442        4      -0.00062653      -0.00105679       0.02019700
Pt       1.40360730       0.81037260      22.29206788        3       0.00159098       0.00201011      -0.05978940
Pt       4.21082126       0.81037254      22.29206791        3       0.00096639      -0.00239454      -0.05976071
Pt       7.01803479       0.81037259      22.29206783        3      -0.00271934      -0.00450074      -0.04502534
Pt       2.80721452       3.24149125      22.29206775        3      -0.00150290       0.00160049      -0.05603995
Pt       5.61442760       3.24149123      22.29206789        3      -0.00250864       0.00459434      -0.04505178
Pt       8.42164156       3.24149116      22.29206803        3       0.00523525      -0.00008213      -0.04503874
Pt       4.21082093       5.67260998      22.29206800        3      -0.00063618      -0.00211780      -0.05608240
Pt       7.01803487       5.67261039      22.29206775        3      -0.00256458       0.00038171      -0.05980993
Pt       9.82524824       5.67261062      22.29206803        3       0.00213583       0.00052189      -0.05604443
Pt      -0.00000058       1.62074570      24.58417378        2      -0.02281417       0.01325657      -0.01495172
Pt       2.80721444       1.62074548      24.58417392        2       0.00274160      -0.00921331       0.01459961
Pt       5.61442778       1.62074537      24.58417373        2       0.02293515       0.01314611      -0.01506538
Pt       1.40360636       4.05186440      24.58417384        2       0.03741321       0.01759670       0.07025212
Pt       4.21082088       4.05186399      24.58417380        2      -0.03397775       0.02359552       0.07021548
Pt       7.01803502       4.05186406      24.58417406        2      -0.00009364      -0.02641545      -0.01499185
Pt       2.80721280       6.48298341      24.58417369        2      -0.00339150      -0.04122062       0.07029168
Pt       5.61442796       6.48298324      24.58417387        2       0.00656748       0.00703230       0.01467501
Pt       8.42164221       6.48298340      24.58417380        2      -0.00937728       0.00221094       0.01461301
Pt       0.00579907       0.00762037      26.90932963        1      -0.00408430      -0.00458352       0.00539017
Pt       2.80721393      -0.00000140      26.92159428        1      -0.00000159      -0.00000481       0.00069211
Pt       5.60894039       0.00718431      26.91069385        1       0.00350367      -0.00387264       0.00491534
Pt       1.40012940       2.42276498      26.91071203        1       0.00157277       0.00497127       0.00490007
Pt       4.21451298       2.42228761      26.90929496        1      -0.00189102       0.00582236       0.00544668
Pt       7.01803511       2.43111848      26.91840512        1       0.00000329      -0.00000549       0.00045729
Pt       2.80721382       4.86222489      26.93299621        1       0.00000130      -0.00000877       0.03848501
Pt       5.62339272       4.86340783      26.91068636        1      -0.00508259      -0.00111746       0.00497282
Pt       8.41215021       4.86344868      26.90929965        1       0.00597785      -0.00125631       0.00546570
N        2.80721212       4.86234620      29.83991837        0       0.00016076       0.00158124       0.04944212
H        2.31526396       5.71454009      29.56526209        0      -0.01087103       0.01918362      -0.00212824
H        3.79128006       4.86198459      29.56564097        0       0.02308115       0.00031908      -0.00236432
H        2.31509995       4.01009164      29.56601884        0      -0.01236975      -0.02103077      -0.00268814
