40
Lattice="8.421641763931781 0.0 0.0 4.2108208819658905 7.293355709136913 0.0 0.0 0.0 46.87624170604845" Properties=species:S:1:pos:R:3:tags:I:1:forces:R:3 charge=0 spin=0 energy=-206.99396968802574 free_energy=-206.99396968802574 stress="0.009987017139792442 -2.959024243409658e-07 2.2667260068942596e-08 -2.959024243409658e-07 0.009987160563468933 -1.1385201332814177e-06 2.2667260068942596e-08 -1.1385201332814177e-06 -0.0002623852342367172" pbc="T T T"
Pt      -0.00000003       0.00000022      19.95723434        4      -0.00412897       0.00394946       0.02167263
Pt       2.80721396      -0.00000018      19.95723452        4      -0.00000150       0.00000127       0.02402659
Pt       5.61442778      -0.00000004      19.95723454        4       0.00277116       0.00449394       0.02178022
Pt       1.40360719       2.43111838      19.95723440        4      -0.00527312       0.00015837       0.02180240
Pt       4.21082079       2.43111832      19.95723449        4       0.00549049       0.00160636       0.02169485
Pt       7.01803484       2.43111842      19.95723441        4       0.00000006      -0.00000098      -0.04374763
Pt       2.80721406       4.86223725      19.95723409        4       0.00000202       0.00000014       0.01867995
Pt       5.61442803       4.86223733      19.95723425        4       0.00249835      -0.00464971       0.02177784
Pt       8.42164141       4.86223723      19.95723442        4      -0.00135729      -0.00556052       0.02171816
Pt       1.40360730       0.81037260      22.29206788        3      -0.00234848      -0.00237003      -0.07607386
Pt       4.21082126       0.81037254      22.29206791        3      -0.00084160       0.00320616      -0.07602265
Pt       7.01803479       0.81037259      22.29206783        3      -0.00066182       0.02718314      -0.08380084
Pt       2.80721452       3.24149125      22.29206775        3      -0.00140014       0.00142517      -0.04496891
Pt       5.61442760       3.24149123      22.29206789        3       0.02391168      -0.01305007      -0.08389028
Pt       8.42164156       3.24149116      22.29206803        3      -0.02324446      -0.01412744      -0.08389933
Pt       4.21082093       5.67260998      22.29206800        3      -0.00054332      -0.00197830      -0.04505440
Pt       7.01803487       5.67261039      22.29206775        3       0.00318877      -0.00084687      -0.07617998
Pt       9.82524824       5.67261062      22.29206803        3       0.00194452       0.00054864      -0.04501659
Pt      -0.00000058       1.62074570      24.58417378        2      -0.03931651       0.02867720      -0.07492362
Pt       2.80721444       1.62074548      24.58417392        2       0.00035563      -0.00161310       0.00236227
Pt       5.61442778       1.62074537      24.58417373        2       0.04458125       0.01967429      -0.07502861
Pt       1.40360636       4.05186440      24.58417384        2       0.14067890       0.07590075       0.25139758
Pt       4.21082088       4.05186399      24.58417380        2      -0.13598679       0.08400400       0.25135428
Pt       7.01803502       4.05186406      24.58417406        2      -0.00525971      -0.04837510      -0.07470798
Pt       2.80721280       6.48298341      24.58417369        2      -0.00467426      -0.15993935       0.25170037
Pt       5.61442796       6.48298324      24.58417387        2       0.00118032       0.00106467       0.00266652
Pt       8.42164221       6.48298340      24.58417380        2      -0.00157108       0.00054646       0.00260278
Pt       0.01268443       0.02156227      26.90520289        1      -0.00646872      -0.01834395      -0.00112436
Pt       2.80721398       0.00001584      26.92092638        1       0.00001036      -0.00006875       0.01406765
Pt       5.60586087       0.01662910      26.90951403        1      -0.00131501      -0.00411585      -0.02142506
Pt       1.39348611       2.41539624      26.90947936        1       0.00401819       0.00057532      -0.02127086
Pt       4.22315538       2.40937812      26.90515483        1      -0.01247321       0.01444274      -0.00111513
Pt       7.01803422       2.43113138      26.92487312        1       0.00000024      -0.00005698       0.00094752
Pt       2.80721689       4.86210301      26.99594138        1      -0.00000728      -0.00010137      -0.02732369
Pt       5.63311122       4.86138166      26.90951848        1      -0.00270540       0.00315803      -0.02142546
Pt       8.39663025       4.86246839      26.90519779        1       0.01894838       0.00351091      -0.00117646
N        2.80721368       4.86206851      29.14801029        0       0.00017312      -0.00073773       0.01266092
H        1.83732995       4.86092962      29.48757845        0      -0.00162365       0.00071789       0.00512422
H        3.29098501       5.70290627      29.48696405        0       0.00155819       0.00180742       0.00655686
H        3.29333013       4.02301245      29.48819367        0      -0.00010923      -0.00071633       0.00358225
