40
Lattice="8.421641763931781 0.0 0.0 4.2108208819658905 7.293355709136913 0.0 0.0 0.0 46.87624170604845" Properties=species:S:1:pos:R:3:tags:I:1:forces:R:3 charge=0 spin=0 energy=-206.42847133597496 free_energy=-206.42847133597496 stress="0.010261401534080505 -3.763222764519014e-07 -3.1888636176091723e-09 -3.763222764519014e-07 0.01026141457259655 1.3036552104495058e-07 -3.1888636176091723e-09 1.3036552104495058e-07 -0.00026233826065436006" pbc="T T T"
Pt      -0.00000003       0.00000022      19.95723434        4      -0.00060778       0.00086519       0.01982022
Pt       2.80721396      -0.00000018      19.95723452        4      -0.00000290       0.00000206       0.02017821
Pt       5.61442778      -0.00000004      19.95723454        4      -0.00033527       0.00200575       0.02007229
Pt       1.40360719       2.43111838      19.95723440        4      -0.00156384      -0.00129119       0.02007637
Pt       4.21082079       2.43111832      19.95723449        4       0.00106274       0.00009635       0.01983459
Pt       7.01803484       2.43111842      19.95723441        4      -0.00000188       0.00000038      -0.00010958
Pt       2.80721406       4.86223725      19.95723409        4       0.00000214      -0.00000131       0.02025003
Pt       5.61442803       4.86223733      19.95723425        4       0.00189688      -0.00071272       0.02007134
Pt       8.42164141       4.86223723      19.95723442        4      -0.00044826      -0.00096620       0.01983544
Pt       1.40360730       0.81037260      22.29206788        3       0.00048849      -0.00031078      -0.06010468
Pt       4.21082126       0.81037254      22.29206791        3      -0.00049086      -0.00028302      -0.06007172
Pt       7.01803479       0.81037259      22.29206783        3       0.00026021      -0.00453386      -0.04494845
Pt       2.80721452       3.24149125      22.29206775        3       0.00006457       0.00110492      -0.05582333
Pt       5.61442760       3.24149123      22.29206789        3      -0.00402601       0.00202326      -0.04496249
Pt       8.42164156       3.24149116      22.29206803        3       0.00377413       0.00251322      -0.04494834
Pt       4.21082093       5.67260998      22.29206800        3      -0.00099395      -0.00051776      -0.05586667
Pt       7.01803487       5.67261039      22.29206775        3      -0.00000742       0.00059283      -0.06012002
Pt       9.82524824       5.67261062      22.29206803        3       0.00092478      -0.00058935      -0.05582272
Pt      -0.00000058       1.62074570      24.58417378        2      -0.02325258       0.01302801      -0.01422515
Pt       2.80721444       1.62074548      24.58417392        2       0.00395898      -0.00833513       0.01383214
Pt       5.61442778       1.62074537      24.58417373        2       0.02295528       0.01364001      -0.01432576
Pt       1.40360636       4.05186440      24.58417384        2       0.03677059       0.01954498       0.07028019
Pt       4.21082088       4.05186399      24.58417380        2      -0.03534035       0.02205279       0.07024232
Pt       7.01803502       4.05186406      24.58417406        2       0.00031837      -0.02667708      -0.01426777
Pt       2.80721280       6.48298341      24.58417369        2      -0.00138089      -0.04160153       0.07025155
Pt       5.61442796       6.48298324      24.58417387        2       0.00520237       0.00763850       0.01388958
Pt       8.42164221       6.48298340      24.58417380        2      -0.00922949       0.00072615       0.01384132
Pt       0.00536217       0.00684822      26.91054856        1      -0.00371340      -0.00393449       0.00483586
Pt       2.80721484      -0.00000012      26.92142335        1      -0.00000505       0.00000224       0.00081446
Pt       5.60843091       0.00798053      26.90943239        1       0.00393576      -0.00453894       0.00553260
Pt       1.39969529       2.42192384      26.90945482        1       0.00195844       0.00570451       0.00548648
Pt       4.21406244       2.42305201      26.91052000        1      -0.00153156       0.00520584       0.00485790
Pt       7.01803538       2.43111992      26.91858284        1      -0.00000119       0.00000092       0.00041834
Pt       2.80721225       4.86224775      26.93304172        1       0.00000594       0.00000960       0.03856052
Pt       5.62433786       4.86345185      26.90942868        1      -0.00589275      -0.00115259       0.00556283
Pt       8.41303697       4.86345517      26.91052135        1       0.00524601      -0.00125754       0.00490592
N        2.80721423       4.86212301      29.83986732        0      -0.00001083      -0.00092410       0.04934441
H        3.29927114       5.71443486      29.56602708        0       0.01205773       0.02073277      -0.00257947
H        3.29923481       4.00996325      29.56528159        0       0.01110234      -0.01937726      -0.00222184
H        1.82313603       4.86241446      29.56565518        0      -0.02314934      -0.00048527      -0.00239710
