40
Lattice="8.421641763931781 0.0 0.0 4.2108208819658905 7.293355709136913 0.0 0.0 0.0 46.87624170604845" Properties=species:S:1:pos:R:3:tags:I:1:forces:R:3 charge=0 spin=0 energy=-206.994030723182 free_energy=-206.994030723182 stress="0.010009722784161568 -1.3089392325582594e-07 -1.1194163818117886e-08 -1.3089392325582594e-07 0.010009869933128357 -2.939693217740569e-07 -1.1194163818117886e-08 -2.939693217740569e-07 -0.00023346385569311678" pbc="T T T"
Pt      -0.00000003       0.00000022      19.95723434        4      -0.00400120       0.00406386       0.02228170
Pt       2.80721396      -0.00000018      19.95723452        4      -0.00000257       0.00000388       0.02417197
Pt       5.61442778      -0.00000004      19.95723454        4       0.00262061       0.00439302       0.02111707
Pt       1.40360719       2.43111838      19.95723440        4      -0.00510554       0.00008334       0.02113989
Pt       4.21082079       2.43111832      19.95723449        4       0.00552215       0.00144423       0.02230526
Pt       7.01803484       2.43111842      19.95723441        4      -0.00000257      -0.00000293      -0.04341649
Pt       2.80721406       4.86223725      19.95723409        4       0.00000178       0.00000177       0.01863767
Pt       5.61442803       4.86223733      19.95723425        4       0.00248253      -0.00446691       0.02112104
Pt       8.42164141       4.86223723      19.95723442        4      -0.00151671      -0.00550564       0.02233183
Pt       1.40360730       0.81037260      22.29206788        3      -0.00120494      -0.00038373      -0.07484487
Pt       4.21082126       0.81037254      22.29206791        3       0.00029935       0.00123606      -0.07479377
Pt       7.01803479       0.81037259      22.29206783        3      -0.00285975       0.02655474      -0.08293561
Pt       2.80721452       3.24149125      22.29206775        3      -0.00284114       0.00245223      -0.04599959
Pt       5.61442760       3.24149123      22.29206789        3       0.02445537      -0.01080892      -0.08298802
Pt       8.42164156       3.24149116      22.29206803        3      -0.02158392      -0.01571001      -0.08300268
Pt       4.21082093       5.67260998      22.29206800        3      -0.00069935      -0.00371784      -0.04609653
Pt       7.01803487       5.67261039      22.29206775        3       0.00089610      -0.00083261      -0.07494200
Pt       9.82524824       5.67261062      22.29206803        3       0.00354052       0.00129694      -0.04606406
Pt      -0.00000058       1.62074570      24.58417378        2      -0.04492320       0.02057352      -0.08044074
Pt       2.80721444       1.62074548      24.58417392        2       0.00520211      -0.00923651       0.00729815
Pt       5.61442778       1.62074537      24.58417373        2       0.04038015       0.02856876      -0.08056619
Pt       1.40360636       4.05186440      24.58417384        2       0.14076515       0.07639048       0.24922699
Pt       4.21082088       4.05186399      24.58417380        2      -0.13653529       0.08368321       0.24918352
Pt       7.01803502       4.05186406      24.58417406        2       0.00453353      -0.04922045      -0.08028288
Pt       2.80721280       6.48298341      24.58417369        2      -0.00419976      -0.16013968       0.24917680
Pt       5.61442796       6.48298324      24.58417387        2       0.00536895       0.00903815       0.00754877
Pt       8.42164221       6.48298340      24.58417380        2      -0.01059457       0.00014568       0.00746831
Pt       0.01112145       0.01967089      26.90568634        1      -0.00471063      -0.01863160      -0.00742716
Pt       2.80721509      -0.00002328      26.92827660        1       0.00001422      -0.00004659      -0.01175788
Pt       5.60387323       0.01950257      26.90627872        1       0.00263074      -0.01360961      -0.00276812
Pt       1.39195918       2.41213596      26.90627548        1       0.01040713       0.00913558      -0.00273580
Pt       4.22233692       2.41158325      26.90566559        1      -0.01378181       0.01339852      -0.00745185
Pt       7.01803300       2.43110047      26.92480108        1       0.00000332      -0.00003175       0.00275449
Pt       2.80721157       4.86212071      26.99539274        1      -0.00000813       0.00007064       0.00344147
Pt       5.63662432       4.86162145      26.90628517        1      -0.01302384       0.00439891      -0.00279149
Pt       8.39900492       4.86200650      26.90567304        1       0.01847989       0.00514432      -0.00744932
N        2.80721580       4.86225407      29.15363998        0      -0.00013624      -0.00010732      -0.01615644
H        2.32003910       4.02159691      29.49094941        0       0.02099733       0.03732987       0.00142789
H        2.32268099       5.70464668      29.49040755        0       0.02185760      -0.03686654       0.00235052
H        3.77892389       4.86078954      29.49067649        0      -0.04272725      -0.00008904       0.00192816
