40
Lattice="8.421641763931781 0.0 0.0 4.2108208819658905 7.293355709136913 0.0 0.0 0.0 46.87624170604845" Properties=species:S:1:pos:R:3:tags:I:1:forces:R:3 charge=0 spin=0 energy=-206.9929912181771 free_energy=-206.9929912181771 stress="0.01001348253339529 -6.804021523976189e-08 -8.866956058284359e-09 -6.804021523976189e-08 0.010013471357524395 -4.498286543253016e-08 -8.866956058284359e-09 -4.498286543253016e-08 -0.00022669872851110995" pbc="T T T"
Pt      -0.00000003       0.00000022      19.95723434        4      -0.00415355       0.00388592       0.02204928
Pt       2.80721396      -0.00000018      19.95723452        4      -0.00000264       0.00000207       0.02403759
Pt       5.61442778      -0.00000004      19.95723454        4       0.00283546       0.00436948       0.02140191
Pt       1.40360719       2.43111838      19.95723440        4      -0.00519930       0.00027875       0.02142187
Pt       4.21082079       2.43111832      19.95723449        4       0.00544918       0.00166410       0.02207240
Pt       7.01803484       2.43111842      19.95723441        4      -0.00000194       0.00000086      -0.04327545
Pt       2.80721406       4.86223725      19.95723409        4       0.00000194      -0.00000116       0.01877098
Pt       5.61442803       4.86223733      19.95723425        4       0.00236128      -0.00464639       0.02140221
Pt       8.42164141       4.86223723      19.95723442        4      -0.00128990      -0.00555356       0.02209680
Pt       1.40360730       0.81037260      22.29206788        3      -0.00185174      -0.00126546      -0.07629321
Pt       4.21082126       0.81037254      22.29206791        3      -0.00013217       0.00222518      -0.07624722
Pt       7.01803479       0.81037259      22.29206783        3      -0.00174319       0.02698226      -0.08225760
Pt       2.80721452       3.24149125      22.29206775        3      -0.00226216       0.00173650      -0.04532364
Pt       5.61442760       3.24149123      22.29206789        3       0.02426987      -0.01200978      -0.08230209
Pt       8.42164156       3.24149116      22.29206803        3      -0.02251966      -0.01496635      -0.08231125
Pt       4.21082093       5.67260998      22.29206800        3      -0.00038055      -0.00287504      -0.04541888
Pt       7.01803487       5.67261039      22.29206775        3       0.00197649      -0.00095801      -0.07639342
Pt       9.82524824       5.67261062      22.29206803        3       0.00264041       0.00113867      -0.04538072
Pt      -0.00000058       1.62074570      24.58417378        2      -0.04243302       0.02206167      -0.07778043
Pt       2.80721444       1.62074548      24.58417392        2       0.00432871      -0.00706309       0.00525127
Pt       5.61442778       1.62074537      24.58417373        2       0.04039267       0.02573190      -0.07790949
Pt       1.40360636       4.05186440      24.58417384        2       0.14058267       0.07651357       0.25026140
Pt       4.21082088       4.05186399      24.58417380        2      -0.13652705       0.08351542       0.25021198
Pt       7.01803502       4.05186406      24.58417406        2       0.00205147      -0.04778041      -0.07762951
Pt       2.80721280       6.48298341      24.58417369        2      -0.00402840      -0.16002293       0.25024983
Pt       5.61442796       6.48298324      24.58417387        2       0.00393290       0.00722375       0.00551916
Pt       8.42164221       6.48298340      24.58417380        2      -0.00830292      -0.00018672       0.00545056
Pt       0.01133219       0.01953298      26.90646786        1      -0.00377272      -0.01546025      -0.00768092
Pt       2.80721544      -0.00000619      26.92626540        1       0.00000279      -0.00001643      -0.00834048
Pt       5.60386221       0.01965361      26.90669816        1       0.00410372      -0.01611869      -0.00705990
Pt       1.39187856       2.41212936      26.90670256        1       0.01184428       0.01164229      -0.00704334
Pt       4.22205396       2.41154010      26.90644320        1      -0.01144061       0.01102704      -0.00770217
Pt       7.01803424       2.43112005      26.92456312        1      -0.00000523       0.00000845       0.00628807
Pt       2.80721313       4.86223771      26.99499253        1      -0.00000268       0.00000799       0.00850410
Pt       5.63672272       4.86156910      26.90670262        1      -0.01593368       0.00448156      -0.00707192
Pt       8.39907472       4.86227800      26.90646111        1       0.01520777       0.00443147      -0.00773146
N        2.80721409       4.86223828      29.15419724        0      -0.00002722      -0.00006346      -0.01953266
H        2.80429142       5.83399875      29.49105445        0       0.00011818      -0.04640919       0.00191020
H        3.65024637       4.37888814      29.49105333        0      -0.04028150       0.02312713       0.00189955
H        1.96710530       4.37382530      29.49105462        0       0.04019190       0.02334069       0.00188666
