40
Lattice="8.421641763931781 0.0 0.0 4.2108208819658905 7.293355709136913 0.0 0.0 0.0 46.87624170604845" Properties=species:S:1:pos:R:3:tags:I:1:forces:R:3 charge=0 spin=0 energy=-206.99403263053063 free_energy=-206.99403263053063 stress="0.010009861551225185 -8.028371922819133e-08 -2.0414619328334993e-08 -8.028371922819133e-08 0.010009785182774067 1.8661847889234195e-07 -2.0414619328334993e-08 1.8661847889234195e-07 -0.00023384559608530253" pbc="T T T"
Pt      -0.00000003       0.00000022      19.95723434        4      -0.00392159       0.00389185       0.02175645
Pt       2.80721396      -0.00000018      19.95723452        4      -0.00000244       0.00000097       0.02410112
Pt       5.61442778      -0.00000004      19.95723454        4       0.00275846       0.00455703       0.02159786
Pt       1.40360719       2.43111838      19.95723440        4      -0.00532687       0.00011537       0.02161461
Pt       4.21082079       2.43111832      19.95723449        4       0.00534129       0.00145957       0.02177988
Pt       7.01803484       2.43111842      19.95723441        4      -0.00000196       0.00000362      -0.04330122
Pt       2.80721406       4.86223725      19.95723409        4       0.00000198      -0.00000354       0.01878748
Pt       5.61442803       4.86223733      19.95723425        4       0.00256644      -0.00467709       0.02159644
Pt       8.42164141       4.86223723      19.95723442        4      -0.00141340      -0.00535993       0.02180272
Pt       1.40360730       0.81037260      22.29206788        3      -0.00235313      -0.00216193      -0.07515648
Pt       4.21082126       0.81037254      22.29206791        3      -0.00065512       0.00309981      -0.07510477
Pt       7.01803479       0.81037259      22.29206783        3      -0.00031104       0.02655580      -0.08283266
Pt       2.80721452       3.24149125      22.29206775        3      -0.00168823       0.00188357      -0.04589083
Pt       5.61442760       3.24149123      22.29206789        3       0.02318788      -0.01304774      -0.08287494
Pt       8.42164156       3.24149116      22.29206803        3      -0.02287069      -0.01352469      -0.08288070
Pt       4.21082093       5.67260998      22.29206800        3      -0.00079942      -0.00246225      -0.04598113
Pt       7.01803487       5.67261039      22.29206775        3       0.00299711      -0.00094858      -0.07525332
Pt       9.82524824       5.67261062      22.29206803        3       0.00248554       0.00055617      -0.04593500
Pt      -0.00000058       1.62074570      24.58417378        2      -0.04206761       0.02426750      -0.07998135
Pt       2.80721444       1.62074548      24.58417392        2       0.00306231      -0.00890846       0.00686821
Pt       5.61442778       1.62074537      24.58417373        2       0.04208402       0.02435280      -0.08010060
Pt       1.40360636       4.05186440      24.58417384        2       0.14091469       0.07625857       0.24901140
Pt       4.21082088       4.05186399      24.58417380        2      -0.13644451       0.08395696       0.24896598
Pt       7.01803502       4.05186406      24.58417406        2      -0.00000243      -0.04853899      -0.07984641
Pt       2.80721280       6.48298341      24.58417369        2      -0.00443902      -0.16015191       0.24903837
Pt       5.61442796       6.48298324      24.58417387        2       0.00618514       0.00707219       0.00712790
Pt       8.42164221       6.48298340      24.58417380        2      -0.00929282       0.00185166       0.00707117
Pt       0.01160560       0.01917786      26.90575957        1      -0.00215945      -0.01360448      -0.00323657
Pt       2.80721456       0.00000977      26.92895367        1       0.00000200       0.00002538      -0.01201829
Pt       5.60382041       0.01996189      26.90622014        1       0.00478373      -0.01912036      -0.00733806
Pt       1.39165678       2.41200304      26.90622331        1       0.01415668       0.01370193      -0.00735087
Pt       4.22156974       2.41153602      26.90573966        1      -0.01062168       0.00870174      -0.00327450
Pt       7.01803198       2.43113684      26.92403173        1      -0.00000513       0.00003049       0.00425542
Pt       2.80721517       4.86233194      26.99527969        1       0.00000749      -0.00006618       0.00441518
Pt       5.63698981       4.86146361      26.90621970        1      -0.01893878       0.00549043      -0.00734525
Pt       8.39928327       4.86271312      26.90575838        1       0.01277674       0.00495816      -0.00329162
N        2.80721359       4.86223388      29.15362896        0      -0.00008717      -0.00008231      -0.01625333
H        3.29115936       4.01949803      29.49041238        0      -0.02214124       0.03738428       0.00215269
H        1.83547492       4.86437828      29.49061370        0       0.04356208       0.00040754       0.00179853
H        3.29500096       5.70259435      29.49082083        0      -0.02132997      -0.03792520       0.00150662
