40
Lattice="8.421641763931781 0.0 0.0 4.2108208819658905 7.293355709136913 0.0 0.0 0.0 46.87624170604845" Properties=species:S:1:pos:R:3:tags:I:1:forces:R:3 charge=0 spin=0 energy=-206.99357105216149 free_energy=-206.99357105216149 stress="0.010039485059678555 -3.0521309213327186e-07 9.728611694015399e-09 -3.0521309213327186e-07 0.010039573535323143 -5.277164518702193e-07 9.728611694015399e-09 -5.277164518702193e-07 -0.00017785497766453773" pbc="T T T"
Pt      -0.00000003       0.00000022      19.95723434        4      -0.00399894       0.00369978       0.02168459
Pt       2.80721396      -0.00000018      19.95723452        4      -0.00000195       0.00000205       0.02432521
Pt       5.61442778      -0.00000004      19.95723454        4       0.00265667       0.00430142       0.02175984
Pt       1.40360719       2.43111838      19.95723440        4      -0.00505025       0.00015582       0.02177918
Pt       4.21082079       2.43111832      19.95723449        4       0.00520871       0.00161943       0.02170645
Pt       7.01803484       2.43111842      19.95723441        4      -0.00000067       0.00000108      -0.04318792
Pt       2.80721406       4.86223725      19.95723409        4       0.00000186      -0.00000073       0.01864872
Pt       5.61442803       4.86223733      19.95723425        4       0.00239060      -0.00445554       0.02175768
Pt       8.42164141       4.86223723      19.95723442        4      -0.00120601      -0.00532394       0.02172963
Pt       1.40360730       0.81037260      22.29206788        3      -0.00228567      -0.00229712      -0.07568804
Pt       4.21082126       0.81037254      22.29206791        3      -0.00080936       0.00311052      -0.07563350
Pt       7.01803479       0.81037259      22.29206783        3      -0.00058596       0.02610483      -0.08317091
Pt       2.80721452       3.24149125      22.29206775        3      -0.00147277       0.00156333      -0.04441773
Pt       5.61442760       3.24149123      22.29206789        3       0.02293874      -0.01257270      -0.08324058
Pt       8.42164156       3.24149116      22.29206803        3      -0.02234658      -0.01352891      -0.08324654
Pt       4.21082093       5.67260998      22.29206800        3      -0.00062568      -0.00210534      -0.04451686
Pt       7.01803487       5.67261039      22.29206775        3       0.00308562      -0.00082057      -0.07579217
Pt       9.82524824       5.67261062      22.29206803        3       0.00209956       0.00054136      -0.04447310
Pt      -0.00000058       1.62074570      24.58417378        2      -0.03715291       0.02639238      -0.06483441
Pt       2.80721444       1.62074548      24.58417392        2       0.00079080      -0.01008082       0.01466391
Pt       5.61442778       1.62074537      24.58417373        2       0.04149002       0.01897039      -0.06491990
Pt       1.40360636       4.05186440      24.58417384        2       0.13989942       0.07518758       0.24115379
Pt       4.21082088       4.05186399      24.58417380        2      -0.13500792       0.08362383       0.24112792
Pt       7.01803502       4.05186406      24.58417406        2      -0.00433843      -0.04536832      -0.06467335
Pt       2.80721280       6.48298341      24.58417369        2      -0.00487444      -0.15886089       0.24140309
Pt       5.61442796       6.48298324      24.58417387        2       0.00832652       0.00568201       0.01493246
Pt       8.42164221       6.48298340      24.58417380        2      -0.00913408       0.00441793       0.01487880
Pt       0.00912658       0.01792442      26.90529938        1       0.02114523       0.00933369      -0.00274218
Pt       2.80721749       0.00000883      26.92862015        1      -0.00000304      -0.00003514      -0.01859274
Pt       5.60851384       0.01401573      26.90926450        1      -0.02589538       0.02002234      -0.02109324
Pt       1.39443628       2.41900759      26.90923743        1      -0.00453340      -0.03266276      -0.02099968
Pt       4.22176691       2.41428199      26.90527811        1      -0.00235596      -0.02318009      -0.00281717
Pt       7.01803197       2.43112689      26.92607276        1       0.00000668      -0.00003331      -0.00819175
Pt       2.80721493       4.86219126      26.99498074        1       0.00000627      -0.00017717       0.03576100
Pt       5.62951303       4.86037143      26.90924990        1       0.03041411       0.01243857      -0.02104745
Pt       8.40157229       4.86118785      26.90528916        1      -0.01877768       0.01363879      -0.00277540
N        2.80721284       4.86208870      29.15745786        0       0.00008733       0.00144387      -0.03598867
H        3.29431338       4.02129327      29.49440304        0      -0.02279415       0.03753710       0.00104470
H        1.83539650       4.86098894      29.49405907        0       0.04365764      -0.00007886       0.00160072
H        3.29192905       5.70452904      29.49371836        0      -0.02095462      -0.03820570       0.00208581
