40
Lattice="8.421641763931781 0.0 0.0 4.2108208819658905 7.293355709136913 0.0 0.0 0.0 46.87624170604845" Properties=species:S:1:pos:R:3:tags:I:1:forces:R:3 charge=0 spin=0 energy=-206.99402881583336 free_energy=-206.99402881583336 stress="0.010009890422224998 -1.4404183446004026e-07 -2.584967973007224e-08 -1.4404183446004026e-07 0.010009806603193283 2.5655253921286203e-07 -2.584967973007224e-08 2.5655253921286203e-07 -0.00023382030485663563" pbc="T T T"
Pt      -0.00000003       0.00000022      19.95723434        4      -0.00392150       0.00389185       0.02175668
Pt       2.80721396      -0.00000018      19.95723452        4      -0.00000251       0.00000097       0.02410116
Pt       5.61442778      -0.00000004      19.95723454        4       0.00275854       0.00455707       0.02159778
Pt       1.40360719       2.43111838      19.95723440        4      -0.00532685       0.00011546       0.02161449
Pt       4.21082079       2.43111832      19.95723449        4       0.00534127       0.00145955       0.02177986
Pt       7.01803484       2.43111842      19.95723441        4      -0.00000180       0.00000382      -0.04330115
Pt       2.80721406       4.86223725      19.95723409        4       0.00000201      -0.00000366       0.01878735
Pt       5.61442803       4.86223733      19.95723425        4       0.00256642      -0.00467714       0.02159642
Pt       8.42164141       4.86223723      19.95723442        4      -0.00141354      -0.00535981       0.02180287
Pt       1.40360730       0.81037260      22.29206788        3      -0.00235355      -0.00216210      -0.07515752
Pt       4.21082126       0.81037254      22.29206791        3      -0.00065516       0.00309956      -0.07510459
Pt       7.01803479       0.81037259      22.29206783        3      -0.00031058       0.02655558      -0.08283288
Pt       2.80721452       3.24149125      22.29206775        3      -0.00168819       0.00188370      -0.04589096
Pt       5.61442760       3.24149123      22.29206789        3       0.02318749      -0.01304737      -0.08287400
Pt       8.42164156       3.24149116      22.29206803        3      -0.02287076      -0.01352512      -0.08288000
Pt       4.21082093       5.67260998      22.29206800        3      -0.00079927      -0.00246233      -0.04598075
Pt       7.01803487       5.67261039      22.29206775        3       0.00299661      -0.00094883      -0.07525346
Pt       9.82524824       5.67261062      22.29206803        3       0.00248541       0.00055655      -0.04593412
Pt      -0.00000058       1.62074570      24.58417378        2      -0.04206701       0.02426716      -0.07998060
Pt       2.80721444       1.62074548      24.58417392        2       0.00306372      -0.00890966       0.00687151
Pt       5.61442778       1.62074537      24.58417373        2       0.04208212       0.02435336      -0.08009879
Pt       1.40360636       4.05186440      24.58417384        2       0.14091481       0.07625855       0.24901186
Pt       4.21082088       4.05186399      24.58417380        2      -0.13644443       0.08395556       0.24896829
Pt       7.01803502       4.05186406      24.58417406        2      -0.00000260      -0.04853881      -0.07984672
Pt       2.80721280       6.48298341      24.58417369        2      -0.00443931      -0.16015278       0.24904005
Pt       5.61442796       6.48298324      24.58417387        2       0.00618702       0.00707385       0.00712958
Pt       8.42164221       6.48298340      24.58417380        2      -0.00929403       0.00185253       0.00707327
Pt       0.01160543       0.01917784      26.90575976        1      -0.00215821      -0.01360384      -0.00323719
Pt       2.80721451       0.00000973      26.92895413        1       0.00000190       0.00002676      -0.01202639
Pt       5.60382022       0.01996202      26.90621999        1       0.00478206      -0.01912066      -0.00733484
Pt       1.39165663       2.41200305      26.90622331        1       0.01415777       0.01370093      -0.00735405
Pt       4.22156972       2.41153611      26.90574020        1      -0.01062329       0.00870124      -0.00328143
Pt       7.01803183       2.43113694      26.92403213        1      -0.00000346       0.00003136       0.00425629
Pt       2.80721506       4.86233270      26.99527986        1       0.00000749      -0.00005638       0.00441933
Pt       5.63698967       4.86146363      26.90621935        1      -0.01893878       0.00549123      -0.00734574
Pt       8.39928305       4.86271321      26.90575825        1       0.01277676       0.00495933      -0.00329206
N        2.80721411       4.86222323      29.15362981        0      -0.00013076       0.00043803      -0.01618305
H        1.83547355       4.86436992      29.49061748        0       0.04362907       0.00010451       0.00176469
H        3.29495824       5.70260351      29.49084523        0      -0.02122611      -0.03805872       0.00135143
H        3.29120235       4.01950756      29.49039458        0      -0.02226889       0.03728869       0.00226755
