40
Lattice="8.421641763931781 0.0 0.0 4.2108208819658905 7.293355709136913 0.0 0.0 0.0 46.87624170604845" Properties=species:S:1:pos:R:3:tags:I:1:forces:R:3 charge=0 spin=0 energy=-206.99398303946617 free_energy=-206.99398303946617 stress="0.009981813840568066 -3.966812016642507e-07 -1.5975619049868328e-08 -3.966812016642507e-07 0.009981876239180565 -1.2122137604819727e-06 -1.5975619049868328e-08 -1.2122137604819727e-06 -0.0002473804634064436" pbc="T T T"
Pt      -0.00000003       0.00000022      19.95723434        4      -0.00412913       0.00397101       0.02168153
Pt       2.80721396      -0.00000018      19.95723452        4      -0.00000153       0.00000141       0.02397924
Pt       5.61442778      -0.00000004      19.95723454        4       0.00273763       0.00451722       0.02181726
Pt       1.40360719       2.43111838      19.95723440        4      -0.00527613       0.00011800       0.02183872
Pt       4.21082079       2.43111832      19.95723449        4       0.00550885       0.00159553       0.02170299
Pt       7.01803484       2.43111842      19.95723441        4       0.00000033      -0.00000086      -0.04356288
Pt       2.80721406       4.86223725      19.95723409        4       0.00000182       0.00000024       0.01865720
Pt       5.61442803       4.86223733      19.95723425        4       0.00253493      -0.00463210       0.02181449
Pt       8.42164141       4.86223723      19.95723442        4      -0.00137625      -0.00557122       0.02172608
Pt       1.40360730       0.81037260      22.29206788        3      -0.00221945      -0.00238524      -0.07603583
Pt       4.21082126       0.81037254      22.29206791        3      -0.00091979       0.00310165      -0.07598376
Pt       7.01803479       0.81037259      22.29206783        3      -0.00066368       0.02675715      -0.08297103
Pt       2.80721452       3.24149125      22.29206775        3      -0.00137522       0.00146024      -0.04525895
Pt       5.61442760       3.24149123      22.29206789        3       0.02354407      -0.01283467      -0.08306462
Pt       8.42164156       3.24149116      22.29206803        3      -0.02287522      -0.01391565      -0.08307435
Pt       4.21082093       5.67260998      22.29206800        3      -0.00058568      -0.00197402      -0.04534338
Pt       7.01803487       5.67261039      22.29206775        3       0.00313758      -0.00072765      -0.07614067
Pt       9.82524824       5.67261062      22.29206803        3       0.00196276       0.00051102      -0.04530472
Pt      -0.00000058       1.62074570      24.58417378        2      -0.03930051       0.02889519      -0.07542706
Pt       2.80721444       1.62074548      24.58417392        2       0.00023608      -0.00147315       0.00224330
Pt       5.61442778       1.62074537      24.58417373        2       0.04476098       0.01955215      -0.07553063
Pt       1.40360636       4.05186440      24.58417384        2       0.13897628       0.07485320       0.24920613
Pt       4.21082088       4.05186399      24.58417380        2      -0.13422860       0.08305325       0.24916482
Pt       7.01803502       4.05186406      24.58417406        2      -0.00545432      -0.04847210      -0.07520948
Pt       2.80721280       6.48298341      24.58417369        2      -0.00473048      -0.15795572       0.24953437
Pt       5.61442796       6.48298324      24.58417387        2       0.00112024       0.00089200       0.00254530
Pt       8.42164221       6.48298340      24.58417380        2      -0.00138992       0.00058042       0.00248263
Pt       0.01279574       0.02191913      26.90517740        1      -0.00701843      -0.02061442      -0.00095044
Pt       2.80721413       0.00001601      26.92064116        1       0.00001190      -0.00007133       0.01527663
Pt       5.60584885       0.01681334      26.90968889        1      -0.00113150      -0.00581957      -0.02199178
Pt       1.39333330       2.41529349      26.90965422        1       0.00539541       0.00157232      -0.02184587
Pt       4.22341022       2.40910401      26.90513029        1      -0.01416165       0.01603884      -0.00094716
Pt       7.01803485       2.43113132      26.92475548        1      -0.00000024      -0.00005979       0.00183973
Pt       2.80721659       4.86209897      26.99392140        1      -0.00000668      -0.00013521       0.00287703
Pt       5.63327674       4.86130012      26.90969486        1      -0.00426689       0.00385226      -0.02199647
Pt       8.39626582       4.86238580      26.90517283        1       0.02118340       0.00417211      -0.00100498
N        2.80721536       4.86205129      29.15015561        0      -0.00014749      -0.00080001      -0.01070118
H        3.29324197       4.02323931      29.49052553        0       0.00294849      -0.00610388       0.00310406
H        1.83757304       4.86092298      29.48987796        0      -0.00773328       0.00054363       0.00460899
H        3.29082653       5.70270695      29.48921413        0       0.00493162       0.00750759       0.00624456
