40
Lattice="8.421641763931781 0.0 0.0 4.2108208819658905 7.293355709136913 0.0 0.0 0.0 46.87624170604845" Properties=species:S:1:pos:R:3:tags:I:1:forces:R:3 charge=0 spin=0 energy=-206.99317241629723 free_energy=-206.99317241629723 stress="0.009990810416638851 -6.14203798932067e-08 -7.180466776723904e-10 -6.14203798932067e-08 0.009990807622671127 -7.158004677876306e-08 -7.180466776723904e-10 -7.158004677876306e-08 -0.0002683205239009112" pbc="T T T"
Pt      -0.00000003       0.00000022      19.95723434        4      -0.00417902       0.00379464       0.02204267
Pt       2.80721396      -0.00000018      19.95723452        4      -0.00000239       0.00000180       0.02406565
Pt       5.61442778      -0.00000004      19.95723454        4       0.00290513       0.00432527       0.02141712
Pt       1.40360719       2.43111838      19.95723440        4      -0.00519730       0.00036001       0.02143652
Pt       4.21082079       2.43111832      19.95723449        4       0.00538416       0.00173128       0.02206542
Pt       7.01803484       2.43111842      19.95723441        4      -0.00000162       0.00000149      -0.04364806
Pt       2.80721406       4.86223725      19.95723409        4       0.00000221      -0.00000216       0.01868349
Pt       5.61442803       4.86223733      19.95723425        4       0.00228997      -0.00468324       0.02141366
Pt       8.42164141       4.86223723      19.95723442        4      -0.00119895      -0.00552889       0.02208785
Pt       1.40360730       0.81037260      22.29206788        3      -0.00184908      -0.00139857      -0.07711920
Pt       4.21082126       0.81037254      22.29206791        3      -0.00024839       0.00229010      -0.07706829
Pt       7.01803479       0.81037259      22.29206783        3      -0.00180737       0.02760801      -0.08335224
Pt       2.80721452       3.24149125      22.29206775        3      -0.00223547       0.00139842      -0.04417145
Pt       5.61442760       3.24149123      22.29206789        3       0.02484262      -0.01226368      -0.08339997
Pt       8.42164156       3.24149116      22.29206803        3      -0.02302558      -0.01533833      -0.08340897
Pt       4.21082093       5.67260998      22.29206800        3      -0.00010579      -0.00268614      -0.04426415
Pt       7.01803487       5.67261039      22.29206775        3       0.00209104      -0.00088983      -0.07721465
Pt       9.82524824       5.67261062      22.29206803        3       0.00233941       0.00127837      -0.04422425
Pt      -0.00000058       1.62074570      24.58417378        2      -0.04350873       0.02309328      -0.07117943
Pt       2.80721444       1.62074548      24.58417392        2       0.00406498      -0.00405555       0.00117846
Pt       5.61442778       1.62074537      24.58417373        2       0.04182207       0.02613330      -0.07129233
Pt       1.40360636       4.05186440      24.58417384        2       0.14106092       0.07659054       0.24672423
Pt       4.21082088       4.05186399      24.58417380        2      -0.13681160       0.08391946       0.24668288
Pt       7.01803502       4.05186406      24.58417406        2       0.00168401      -0.04923426      -0.07101631
Pt       2.80721280       6.48298341      24.58417369        2      -0.00422941      -0.16048115       0.24670026
Pt       5.61442796       6.48298324      24.58417387        2       0.00147982       0.00546747       0.00142355
Pt       8.42164221       6.48298340      24.58417380        2      -0.00556837      -0.00146033       0.00135930
Pt       0.01018372       0.01802417      26.90628188        1       0.00339083      -0.00001547      -0.00802350
Pt       2.80721423       0.00000003      26.92158113        1       0.00000651      -0.00000598       0.00532045
Pt       5.60483148       0.01793152      26.90690719        1      -0.00256451       0.00011744      -0.00895038
Pt       1.39286610       2.41384413      26.90690291        1       0.00120468      -0.00229572      -0.00889582
Pt       4.22134399       2.41329985      26.90626738        1      -0.00174934      -0.00293859      -0.00807852
Pt       7.01803259       2.43111275      26.92738813        1      -0.00000094       0.00001196      -0.00597710
Pt       2.80721347       4.86224018      26.99559089        1       0.00000019       0.00000205      -0.02610080
Pt       5.63476205       4.86157600      26.90692373        1       0.00137425       0.00219898      -0.00898370
Pt       8.40093809       4.86202815      26.90628932        1      -0.00165456       0.00296386      -0.00810189
N        2.80721744       4.86224085      29.14736779        0      -0.00007736      -0.00010675       0.02660779
H        1.96690430       4.37778826      29.48731117        0       0.00625742       0.00359673       0.00173289
H        2.80782686       5.83219449      29.48731340        0      -0.00001352      -0.00708499       0.00176957
H        3.64691903       4.37673285      29.48730810        0      -0.00617125       0.00358533       0.00175913
