40
Lattice="8.421641763931781 0.0 0.0 4.2108208819658905 7.293355709136913 0.0 0.0 0.0 46.87624170604845" Properties=species:S:1:pos:R:3:tags:I:1:forces:R:3 charge=0 spin=0 energy=-206.9932239147103 free_energy=-206.9932239147103 stress="0.01000036858022213 -7.038721605567844e-08 1.1095417640216709e-10 -7.038721605567844e-08 0.010000417940318584 -3.14025747627511e-08 1.1095417640216709e-10 -3.14025747627511e-08 -0.00027012775535695255" pbc="T T T"
Pt      -0.00000003       0.00000022      19.95723434        4      -0.00376182       0.00386781       0.02209144
Pt       2.80721396      -0.00000018      19.95723452        4      -0.00000260       0.00000177       0.02420687
Pt       5.61442778      -0.00000004      19.95723454        4       0.00260745       0.00444039       0.02148495
Pt       1.40360719       2.43111838      19.95723440        4      -0.00514637       0.00004420       0.02150333
Pt       4.21082079       2.43111832      19.95723449        4       0.00523703       0.00133355       0.02211516
Pt       7.01803484       2.43111842      19.95723441        4      -0.00000174       0.00000140      -0.04379890
Pt       2.80721406       4.86223725      19.95723409        4       0.00000216      -0.00000198       0.01852631
Pt       5.61442803       4.86223733      19.95723425        4       0.00253652      -0.00448244       0.02148334
Pt       8.42164141       4.86223723      19.95723442        4      -0.00146998      -0.00520442       0.02213669
Pt       1.40360730       0.81037260      22.29206788        3      -0.00171476      -0.00146956      -0.07477865
Pt       4.21082126       0.81037254      22.29206791        3      -0.00037999       0.00221179      -0.07472673
Pt       7.01803479       0.81037259      22.29206783        3      -0.00153162       0.02690937      -0.08492359
Pt       2.80721452       3.24149125      22.29206775        3      -0.00224991       0.00200077      -0.04516087
Pt       5.61442760       3.24149123      22.29206789        3       0.02409888      -0.01215202      -0.08497225
Pt       8.42164156       3.24149116      22.29206803        3      -0.02255797      -0.01474881      -0.08498309
Pt       4.21082093       5.67260998      22.29206800        3      -0.00061581      -0.00299654      -0.04525075
Pt       7.01803487       5.67261039      22.29206775        3       0.00208832      -0.00073817      -0.07487441
Pt       9.82524824       5.67261062      22.29206803        3       0.00286449       0.00099018      -0.04521280
Pt      -0.00000058       1.62074570      24.58417378        2      -0.04266498       0.02189706      -0.07136244
Pt       2.80721444       1.62074548      24.58417392        2       0.00377690      -0.00558310       0.00721554
Pt       5.61442778       1.62074537      24.58417373        2       0.04036567       0.02599235      -0.07147420
Pt       1.40360636       4.05186440      24.58417384        2       0.14024813       0.07530676       0.24288198
Pt       4.21082088       4.05186399      24.58417380        2      -0.13529748       0.08385189       0.24284279
Pt       7.01803502       4.05186406      24.58417406        2       0.00229876      -0.04790087      -0.07119410
Pt       2.80721280       6.48298341      24.58417369        2      -0.00493041      -0.15913229       0.24286669
Pt       5.61442796       6.48298324      24.58417387        2       0.00295042       0.00598706       0.00746559
Pt       8.42164221       6.48298340      24.58417380        2      -0.00674952      -0.00044520       0.00740651
Pt       0.00890744       0.01661416      26.90626021        1       0.01245174       0.00803616      -0.00956028
Pt       2.80721548       0.00000098      26.92364307        1       0.00000545      -0.00001054       0.00327363
Pt       5.60567011       0.01733401      26.90741434        1      -0.01109526       0.00734750      -0.01090477
Pt       1.39296126       2.41486185      26.90740677        1      -0.00079178      -0.01330337      -0.01085732
Pt       4.22076558       2.41510418      26.90624331        1       0.00069268      -0.01481453      -0.00961361
Pt       7.01803308       2.43111440      26.92578302        1       0.00000101       0.00000533      -0.00881136
Pt       2.80721478       4.86223578      26.99491340        1      -0.00000256       0.00000055      -0.02610038
Pt       5.63382935       4.86115363      26.90742738        1       0.01190769       0.00597291      -0.01093948
Pt       8.40279586       4.86163114      26.90626792        1      -0.01316983       0.00678736      -0.00964233
N        2.80721449       4.86223641      29.14525076        0      -0.00001521      -0.00005218       0.04875500
H        1.96728719       5.34776443      29.48561330        0       0.01564039      -0.00901457      -0.00236936
H        3.64765783       5.34686986      29.48561150        0      -0.01561580      -0.00902319      -0.00235973
H        2.80669841       3.89207432      29.48561395        0      -0.00000847       0.01808783      -0.00238438
