40
Lattice="8.421641763931781 0.0 0.0 4.2108208819658905 7.293355709136913 0.0 0.0 0.0 46.87624170604845" Properties=species:S:1:pos:R:3:tags:I:1:forces:R:3 charge=0 spin=0 energy=-206.4284732433236 free_energy=-206.4284732433236 stress="0.010261362418532372 -3.554727072696551e-07 -2.5639790734999224e-08 -3.554727072696551e-07 0.010261430405080318 1.168832710618517e-07 -2.5639790734999224e-08 1.168832710618517e-07 -0.0002623473119456321" pbc="T T T"
Pt      -0.00000003       0.00000022      19.95723434        4      -0.00060768       0.00086519       0.01982032
Pt       2.80721396      -0.00000018      19.95723452        4      -0.00000304       0.00000210       0.02017812
Pt       5.61442778      -0.00000004      19.95723454        4      -0.00033521       0.00200583       0.02007234
Pt       1.40360719       2.43111838      19.95723440        4      -0.00156387      -0.00129122       0.02007637
Pt       4.21082079       2.43111832      19.95723449        4       0.00106267       0.00009636       0.01983445
Pt       7.01803484       2.43111842      19.95723441        4      -0.00000186       0.00000041      -0.00010948
Pt       2.80721406       4.86223725      19.95723409        4       0.00000225      -0.00000143       0.02025011
Pt       5.61442803       4.86223733      19.95723425        4       0.00189685      -0.00071273       0.02007138
Pt       8.42164141       4.86223723      19.95723442        4      -0.00044819      -0.00096632       0.01983540
Pt       1.40360730       0.81037260      22.29206788        3       0.00048836      -0.00031091      -0.06010397
Pt       4.21082126       0.81037254      22.29206791        3      -0.00049065      -0.00028311      -0.06007184
Pt       7.01803479       0.81037259      22.29206783        3       0.00026006      -0.00453393      -0.04494864
Pt       2.80721452       3.24149125      22.29206775        3       0.00006482       0.00110506      -0.05582230
Pt       5.61442760       3.24149123      22.29206789        3      -0.00402609       0.00202350      -0.04496352
Pt       8.42164156       3.24149116      22.29206803        3       0.00377391       0.00251351      -0.04494778
Pt       4.21082093       5.67260998      22.29206800        3      -0.00099427      -0.00051777      -0.05586704
Pt       7.01803487       5.67261039      22.29206775        3      -0.00000711       0.00059320      -0.06012007
Pt       9.82524824       5.67261062      22.29206803        3       0.00092448      -0.00058946      -0.05582298
Pt      -0.00000058       1.62074570      24.58417378        2      -0.02325012       0.01302897      -0.01422171
Pt       2.80721444       1.62074548      24.58417392        2       0.00395754      -0.00833412       0.01383528
Pt       5.61442778       1.62074537      24.58417373        2       0.02295502       0.01363951      -0.01432493
Pt       1.40360636       4.05186440      24.58417384        2       0.03677023       0.01954263       0.07028233
Pt       4.21082088       4.05186399      24.58417380        2      -0.03534184       0.02205135       0.07023959
Pt       7.01803502       4.05186406      24.58417406        2       0.00032013      -0.02667826      -0.01427077
Pt       2.80721280       6.48298341      24.58417369        2      -0.00138113      -0.04160181       0.07024871
Pt       5.61442796       6.48298324      24.58417387        2       0.00520260       0.00764102       0.01388688
Pt       8.42164221       6.48298340      24.58417380        2      -0.00922965       0.00072648       0.01384186
Pt       0.00536198       0.00684770      26.91054872        1      -0.00371285      -0.00392952       0.00483739
Pt       2.80721464      -0.00000002      26.92142316        1      -0.00000124       0.00000428       0.00081412
Pt       5.60843135       0.00798011      26.90943209        1       0.00393155      -0.00453569       0.00553281
Pt       1.39969550       2.42192423      26.90945556        1       0.00195777       0.00570321       0.00547744
Pt       4.21406216       2.42305238      26.91052070        1      -0.00153213       0.00520294       0.00485690
Pt       7.01803533       2.43111990      26.91858311        1      -0.00000009      -0.00000052       0.00041845
Pt       2.80721225       4.86224788      26.93304237        1       0.00000404       0.00000686       0.03855825
Pt       5.62433752       4.86345190      26.90942854        1      -0.00589272      -0.00115363       0.00557066
Pt       8.41303730       4.86345511      26.91052148        1       0.00524665      -0.00125880       0.00490561
N        2.80721215       4.86212167      29.83986805        0       0.00019704      -0.00077885       0.04935714
H        1.82313780       4.86241434      29.56565539        0      -0.02329514      -0.00049137      -0.00243694
H        3.29927146       5.71443533      29.56602637        0       0.01199119       0.02062920      -0.00254157
H        3.29923428       4.00996391      29.56528139        0       0.01110809      -0.01941216      -0.00222816
