40
Lattice="8.421641763931781 0.0 0.0 4.2108208819658905 7.293355709136913 0.0 0.0 0.0 46.87624170604845" Properties=species:S:1:pos:R:3:tags:I:1:forces:R:3 charge=0 spin=0 energy=-206.42846942862633 free_energy=-206.42846942862633 stress="0.010261382907629013 -3.57828895403145e-07 -2.2093744889151168e-10 -3.57828895403145e-07 0.010261389426887035 1.1873914473881086e-07 -2.2093744889151168e-10 1.1873914473881086e-07 -0.00026234934921376407" pbc="T T T"
Pt      -0.00000003       0.00000022      19.95723434        4      -0.00060790       0.00086523       0.01982030
Pt       2.80721396      -0.00000018      19.95723452        4      -0.00000299       0.00000222       0.02017821
Pt       5.61442778      -0.00000004      19.95723454        4      -0.00033536       0.00200593       0.02007238
Pt       1.40360719       2.43111838      19.95723440        4      -0.00156410      -0.00129116       0.02007632
Pt       4.21082079       2.43111832      19.95723449        4       0.00106288       0.00009640       0.01983440
Pt       7.01803484       2.43111842      19.95723441        4      -0.00000199       0.00000043      -0.00010944
Pt       2.80721406       4.86223725      19.95723409        4       0.00000215      -0.00000141       0.02024988
Pt       5.61442803       4.86223733      19.95723425        4       0.00189683      -0.00071286       0.02007126
Pt       8.42164141       4.86223723      19.95723442        4      -0.00044838      -0.00096624       0.01983555
Pt       1.40360730       0.81037260      22.29206788        3       0.00048862      -0.00031096      -0.06010392
Pt       4.21082126       0.81037254      22.29206791        3      -0.00049079      -0.00028327      -0.06007133
Pt       7.01803479       0.81037259      22.29206783        3       0.00026039      -0.00453400      -0.04494803
Pt       2.80721452       3.24149125      22.29206775        3       0.00006548       0.00110491      -0.05582419
Pt       5.61442760       3.24149123      22.29206789        3      -0.00402586       0.00202349      -0.04496320
Pt       8.42164156       3.24149116      22.29206803        3       0.00377402       0.00251342      -0.04494715
Pt       4.21082093       5.67260998      22.29206800        3      -0.00099356      -0.00051785      -0.05586764
Pt       7.01803487       5.67261039      22.29206775        3      -0.00000670       0.00059288      -0.06012068
Pt       9.82524824       5.67261062      22.29206803        3       0.00092476      -0.00058954      -0.05582276
Pt      -0.00000058       1.62074570      24.58417378        2      -0.02325283       0.01302828      -0.01422533
Pt       2.80721444       1.62074548      24.58417392        2       0.00395883      -0.00833469       0.01383164
Pt       5.61442778       1.62074537      24.58417373        2       0.02295567       0.01363796      -0.01432361
Pt       1.40360636       4.05186440      24.58417384        2       0.03676657       0.01954500       0.07028121
Pt       4.21082088       4.05186399      24.58417380        2      -0.03534033       0.02205055       0.07023741
Pt       7.01803502       4.05186406      24.58417406        2       0.00032157      -0.02667758      -0.01426955
Pt       2.80721280       6.48298341      24.58417369        2      -0.00138323      -0.04159822       0.07025146
Pt       5.61442796       6.48298324      24.58417387        2       0.00520256       0.00764053       0.01388633
Pt       8.42164221       6.48298340      24.58417380        2      -0.00922787       0.00072509       0.01384742
Pt       0.00536237       0.00684830      26.91054868        1      -0.00371876      -0.00393550       0.00483712
Pt       2.80721472      -0.00000000      26.92142266        1      -0.00000058      -0.00000007       0.00081565
Pt       5.60843081       0.00798064      26.90943255        1       0.00393506      -0.00454151       0.00552359
Pt       1.39969518       2.42192356      26.90945496        1       0.00195944       0.00570844       0.00548646
Pt       4.21406244       2.42305188      26.91052020        1      -0.00153109       0.00520642       0.00485694
Pt       7.01803533       2.43111983      26.91858266        1      -0.00000255      -0.00000030       0.00041889
Pt       2.80721229       4.86224780      26.93304085        1       0.00000284       0.00001036       0.03856597
Pt       5.62433813       4.86345192      26.90942825        1      -0.00589582      -0.00115319       0.00557079
Pt       8.41303675       4.86345522      26.91052152        1       0.00525267      -0.00125585       0.00489683
N        2.80721459       4.86212199      29.83986847        0      -0.00002119      -0.00081074       0.04937064
H        3.29923359       4.00996480      29.56528081        0       0.01115926      -0.01947187      -0.00224697
H        1.82313736       4.86241409      29.56565415        0      -0.02318925      -0.00048604      -0.00240206
H        3.29927072       5.71443398      29.56602591        0       0.01205145       0.02071559      -0.00257073
