40
Lattice="8.421641763931781 0.0 0.0 4.2108208819658905 7.293355709136913 0.0 0.0 0.0 46.87624170604845" Properties=species:S:1:pos:R:3:tags:I:1:forces:R:3 charge=0 spin=0 energy=-206.428543815223 free_energy=-206.428543815223 stress="0.010263733565807343 -1.0596941990570485e-08 -2.254338582474702e-08 -1.0596941990570485e-08 0.01026369072496891 2.614426364289102e-08 -2.254338582474702e-08 2.614426364289102e-08 -0.0002590499061625451" pbc="T T T"
Pt      -0.00000003       0.00000022      19.95723434        4      -0.00041067       0.00104015       0.02005563
Pt       2.80721396      -0.00000018      19.95723452        4      -0.00000336       0.00000252       0.02010361
Pt       5.61442778      -0.00000004      19.95723454        4      -0.00060754       0.00202037       0.01990682
Pt       1.40360719       2.43111838      19.95723440        4      -0.00143929      -0.00153508       0.01991029
Pt       4.21082079       2.43111832      19.95723449        4       0.00111375      -0.00016142       0.02006920
Pt       7.01803484       2.43111842      19.95723441        4      -0.00000159       0.00000013      -0.00002188
Pt       2.80721406       4.86223725      19.95723409        4       0.00000193      -0.00000131       0.02031390
Pt       5.61442803       4.86223733      19.95723425        4       0.00204424      -0.00048358       0.01990578
Pt       8.42164141       4.86223723      19.95723442        4      -0.00069711      -0.00088299       0.02007051
Pt       1.40360730       0.81037260      22.29206788        3       0.00117523       0.00075375      -0.05888658
Pt       4.21082126       0.81037254      22.29206791        3       0.00008706      -0.00140594      -0.05885809
Pt       7.01803479       0.81037259      22.29206783        3      -0.00108468      -0.00486996      -0.04542129
Pt       2.80721452       3.24149125      22.29206775        3      -0.00073529       0.00158518      -0.05645367
Pt       5.61442760       3.24149123      22.29206789        3      -0.00364679       0.00335772      -0.04543937
Pt       8.42164156       3.24149116      22.29206803        3       0.00473720       0.00152034      -0.04542996
Pt       4.21082093       5.67260998      22.29206800        3      -0.00100734      -0.00144813      -0.05649307
Pt       7.01803487       5.67261039      22.29206775        3      -0.00126779       0.00065117      -0.05890460
Pt       9.82524824       5.67261062      22.29206803        3       0.00173805      -0.00013524      -0.05645462
Pt      -0.00000058       1.62074570      24.58417378        2      -0.02317209       0.01278866      -0.01426284
Pt       2.80721444       1.62074548      24.58417392        2       0.00340272      -0.00894143       0.01469505
Pt       5.61442778       1.62074537      24.58417373        2       0.02270511       0.01369211      -0.01436689
Pt       1.40360636       4.05186440      24.58417384        2       0.03676188       0.01810017       0.07004280
Pt       4.21082088       4.05186399      24.58417380        2      -0.03408559       0.02277141       0.07000488
Pt       7.01803502       4.05186406      24.58417406        2       0.00048826      -0.02649023      -0.01430614
Pt       2.80721280       6.48298341      24.58417369        2      -0.00262666      -0.04088889       0.07005247
Pt       5.61442796       6.48298324      24.58417387        2       0.00600544       0.00746481       0.01476604
Pt       8.42164221       6.48298340      24.58417380        2      -0.00947560       0.00150660       0.01470879
Pt       0.00558130       0.00701256      26.91009820        1      -0.00390186      -0.00414481       0.00488720
Pt       2.80721438      -0.00000095      26.92175553        1      -0.00000108      -0.00000306       0.00088556
Pt       5.60861383       0.00756981      26.91013554        1       0.00369954      -0.00410375       0.00504611
Pt       1.39995957       2.42228824      26.91015657        1       0.00168614       0.00527266       0.00501922
Pt       4.21409529       2.42278061      26.91006641        1      -0.00161060       0.00545884       0.00491491
Pt       7.01803497       2.43111881      26.91819596        1       0.00000214       0.00000026       0.00044196
Pt       2.80721315       4.86223662      26.93298094        1      -0.00000005      -0.00000172       0.03796043
Pt       5.62389056       4.86349837      26.91013089        1      -0.00538927      -0.00117022       0.00508824
Pt       8.41278507       4.86356299      26.91006932        1       0.00551523      -0.00131834       0.00495902
N        2.80721191       4.86223544      29.84016452        0       0.00019714       0.00018453       0.04925968
H        1.95509435       5.35412235      29.56516851        0      -0.02022921       0.01144675      -0.00260396
H        3.65926016       5.35425277      29.56516795        0       0.01985453       0.01168396      -0.00254176
H        2.80728917       3.87833855      29.56516844        0       0.00017794      -0.02331618      -0.00262350
