40
Lattice="8.421641763931781 0.0 0.0 4.2108208819658905 7.293355709136913 0.0 0.0 0.0 46.87624170604845" Properties=species:S:1:pos:R:3:tags:I:1:forces:R:3 charge=0 spin=0 energy=-206.99357295951012 free_energy=-206.99357295951012 stress="0.010039489716291428 5.4240143043671196e-08 5.250946344403928e-09 5.4240143043671196e-08 0.010039528831839561 1.2400482773955446e-07 5.250946344403928e-09 1.2400482773955446e-07 -0.00017723746714182198" pbc="T T T"
Pt      -0.00000003       0.00000022      19.95723434        4      -0.00382465       0.00372925       0.02244888
Pt       2.80721396      -0.00000018      19.95723452        4      -0.00000301       0.00000241       0.02427803
Pt       5.61442778      -0.00000004      19.95723454        4       0.00268486       0.00425487       0.02108236
Pt       1.40360719       2.43111838      19.95723440        4      -0.00502386       0.00020481       0.02110005
Pt       4.21082079       2.43111832      19.95723449        4       0.00514662       0.00145881       0.02247201
Pt       7.01803484       2.43111842      19.95723441        4      -0.00000188       0.00000146      -0.04323508
Pt       2.80721406       4.86223725      19.95723409        4       0.00000191      -0.00000156       0.01847024
Pt       5.61442803       4.86223733      19.95723425        4       0.00233690      -0.00445646       0.02108255
Pt       8.42164141       4.86223723      19.95723442        4      -0.00131655      -0.00518825       0.02249351
Pt       1.40360730       0.81037260      22.29206788        3      -0.00103861      -0.00040994      -0.07535413
Pt       4.21082126       0.81037254      22.29206791        3       0.00020192       0.00109572      -0.07531100
Pt       7.01803479       0.81037259      22.29206783        3      -0.00266513       0.02619692      -0.08330099
Pt       2.80721452       3.24149125      22.29206775        3      -0.00302338       0.00217193      -0.04452532
Pt       5.61442760       3.24149123      22.29206789        3       0.02404613      -0.01081181      -0.08333397
Pt       8.42164156       3.24149116      22.29206803        3      -0.02137305      -0.01537110      -0.08334918
Pt       4.21082093       5.67260998      22.29206800        3      -0.00037802      -0.00374595      -0.04462259
Pt       7.01803487       5.67261039      22.29206775        3       0.00082988      -0.00067604      -0.07545388
Pt       9.82524824       5.67261062      22.29206803        3       0.00339779       0.00157749      -0.04458886
Pt      -0.00000058       1.62074570      24.58417378        2      -0.04418521       0.01502158      -0.06502064
Pt       2.80721444       1.62074548      24.58417392        2       0.00731638      -0.01040840       0.01464182
Pt       5.61442778       1.62074537      24.58417373        2       0.03516753       0.03075070      -0.06512361
Pt       1.40360636       4.05186440      24.58417384        2       0.13947877       0.07625078       0.24127209
Pt       4.21082088       4.05186399      24.58417380        2      -0.13576965       0.08265553       0.24124959
Pt       7.01803502       4.05186406      24.58417406        2       0.00900947      -0.04579627      -0.06488408
Pt       2.80721280       6.48298341      24.58417369        2      -0.00368674      -0.15891768       0.24117866
Pt       5.61442796       6.48298324      24.58417387        2       0.00536458       0.01147195       0.01486465
Pt       8.42164221       6.48298340      24.58417380        2      -0.01270063      -0.00109152       0.01479452
Pt       0.00646226       0.01361372      26.90866566        1       0.02524395       0.02164260      -0.02084458
Pt       2.80721738      -0.00000965      26.92785501        1      -0.00000304       0.00000707      -0.01782309
Pt       5.60593761       0.01820992      26.90590247        1      -0.01881418       0.01019874      -0.00255110
Pt       1.39206174       2.41462615      26.90590759        1       0.00065480      -0.02126606      -0.00254102
Pt       4.21939471       2.41869289      26.90866429        1       0.00602746      -0.03254665      -0.02097562
Pt       7.01803133       2.43110670      26.92670228        1       0.00000606       0.00001392      -0.00936681
Pt       2.80721325       4.86225650      26.99498341        1      -0.00000039      -0.00002274       0.03635462
Pt       5.63446282       4.86047475      26.90590668        1       0.01817204       0.01119074      -0.00255395
Pt       8.40660536       4.86100122      26.90866535        1      -0.03127885       0.01102252      -0.02090861
N        2.80721274       4.86225840      29.15756259        0       0.00010917       0.00048442      -0.03627846
H        3.77900168       4.86419098      29.49423928        0      -0.04328361      -0.00128235       0.00136129
H        2.32290046       4.01970004      29.49411238        0       0.02111690       0.03773259       0.00147590
H        2.31974234       5.70288761      29.49436547        0       0.02205736      -0.03714417       0.00132560
