40
Lattice="8.421641763931781 0.0 0.0 4.2108208819658905 7.293355709136913 0.0 0.0 0.0 46.87624170604845" Properties=species:S:1:pos:R:3:tags:I:1:forces:R:3 charge=0 spin=0 energy=-206.99317813834313 free_energy=-206.99317813834313 stress="0.009990517981350422 -6.804366847745769e-08 9.652959320760601e-09 -6.804366847745769e-08 0.009990526363253593 -6.975363220362851e-08 9.652959320760601e-09 -6.975363220362851e-08 -0.00026817142497748137" pbc="T T T"
Pt      -0.00000003       0.00000022      19.95723434        4      -0.00417962       0.00379643       0.02204277
Pt       2.80721396      -0.00000018      19.95723452        4      -0.00000217       0.00000167       0.02406431
Pt       5.61442778      -0.00000004      19.95723454        4       0.00290508       0.00432701       0.02141707
Pt       1.40360719       2.43111838      19.95723440        4      -0.00519894       0.00035942       0.02143648
Pt       4.21082079       2.43111832      19.95723449        4       0.00538605       0.00173070       0.02206519
Pt       7.01803484       2.43111842      19.95723441        4      -0.00000166       0.00000156      -0.04364360
Pt       2.80721406       4.86223725      19.95723409        4       0.00000213      -0.00000213       0.01868525
Pt       5.61442803       4.86223733      19.95723425        4       0.00229150      -0.00468410       0.02141364
Pt       8.42164141       4.86223723      19.95723442        4      -0.00120029      -0.00553020       0.02208768
Pt       1.40360730       0.81037260      22.29206788        3      -0.00184714      -0.00139940      -0.07711605
Pt       4.21082126       0.81037254      22.29206791        3      -0.00024922       0.00228822      -0.07706495
Pt       7.01803479       0.81037259      22.29206783        3      -0.00180693       0.02760066      -0.08333458
Pt       2.80721452       3.24149125      22.29206775        3      -0.00223518       0.00139992      -0.04418097
Pt       5.61442760       3.24149123      22.29206789        3       0.02483720      -0.01226096      -0.08338118
Pt       8.42164156       3.24149116      22.29206803        3      -0.02302006      -0.01533486      -0.08339000
Pt       4.21082093       5.67260998      22.29206800        3      -0.00010705      -0.00268732      -0.04427446
Pt       7.01803487       5.67261039      22.29206775        3       0.00209049      -0.00088802      -0.07721117
Pt       9.82524824       5.67261062      22.29206803        3       0.00234118       0.00127805      -0.04423438
Pt      -0.00000058       1.62074570      24.58417378        2      -0.04353058       0.02310772      -0.07128509
Pt       2.80721444       1.62074548      24.58417392        2       0.00406500      -0.00404425       0.00112038
Pt       5.61442778       1.62074537      24.58417373        2       0.04184359       0.02614675      -0.07140018
Pt       1.40360636       4.05186440      24.58417384        2       0.14107206       0.07659452       0.24676557
Pt       4.21082088       4.05186399      24.58417380        2      -0.13682169       0.08392380       0.24672101
Pt       7.01803502       4.05186406      24.58417406        2       0.00168271      -0.04926075      -0.07112393
Pt       2.80721280       6.48298341      24.58417369        2      -0.00423075      -0.16049314       0.24673833
Pt       5.61442796       6.48298324      24.58417387        2       0.00147086       0.00546308       0.00136037
Pt       8.42164221       6.48298340      24.58417380        2      -0.00556014      -0.00146497       0.00129643
Pt       0.01020385       0.01805020      26.90626993        1       0.00322521      -0.00025074      -0.00795536
Pt       2.80721389      -0.00000039      26.92157662        1       0.00000444      -0.00000211       0.00538082
Pt       5.60481099       0.01795834      26.90689497        1      -0.00239756      -0.00012286      -0.00888221
Pt       1.39285273       2.41381327      26.90689020        1       0.00132807      -0.00203350      -0.00883495
Pt       4.22135602       2.41326917      26.90625555        1      -0.00187121      -0.00267822      -0.00801583
Pt       7.01803207       2.43111296      26.92737698        1       0.00000134       0.00001035      -0.00590316
Pt       2.80721328       4.86223998      26.99558764        1       0.00000016       0.00000369      -0.02577085
Pt       5.63479443       4.86158001      26.90691032        1       0.00108575       0.00217630      -0.00891645
Pt       8.40090494       4.86203290      26.90627741        1      -0.00136289       0.00293596      -0.00803266
N        2.80721867       4.86224012      29.14743797        0      -0.00002651      -0.00005218       0.02615066
H        3.64691222       4.37673740      29.48739224        0      -0.00600441       0.00348349       0.00173174
H        1.96691358       4.37779348      29.48739081        0       0.00603710       0.00346704       0.00173518
H        2.80782792       5.83218535      29.48739576        0      -0.00001601      -0.00690639       0.00173900
