40
Lattice="8.421641763931781 0.0 0.0 4.2108208819658905 7.293355709136913 0.0 0.0 0.0 46.87624170604845" Properties=species:S:1:pos:R:3:tags:I:1:forces:R:3 charge=0 spin=0 energy=-206.994030723182 free_energy=-206.994030723182 stress="0.01000974141061306 -1.256098300927988e-07 4.485029680978414e-09 -1.256098300927988e-07 0.01000984851270914 -2.8039906396770675e-07 4.485029680978414e-09 -2.8039906396770675e-07 -0.00023347391106653959" pbc="T T T"
Pt      -0.00000003       0.00000022      19.95723434        4      -0.00400120       0.00406382       0.02228160
Pt       2.80721396      -0.00000018      19.95723452        4      -0.00000276       0.00000374       0.02417197
Pt       5.61442778      -0.00000004      19.95723454        4       0.00262068       0.00439302       0.02111722
Pt       1.40360719       2.43111838      19.95723440        4      -0.00510583       0.00008320       0.02113970
Pt       4.21082079       2.43111832      19.95723449        4       0.00552230       0.00144431       0.02230499
Pt       7.01803484       2.43111842      19.95723441        4      -0.00000228      -0.00000299      -0.04341680
Pt       2.80721406       4.86223725      19.95723409        4       0.00000180       0.00000198       0.01863759
Pt       5.61442803       4.86223733      19.95723425        4       0.00248248      -0.00446675       0.02112081
Pt       8.42164141       4.86223723      19.95723442        4      -0.00151658      -0.00550569       0.02233166
Pt       1.40360730       0.81037260      22.29206788        3      -0.00120520      -0.00038356      -0.07484500
Pt       4.21082126       0.81037254      22.29206791        3       0.00029955       0.00123584      -0.07479347
Pt       7.01803479       0.81037259      22.29206783        3      -0.00285973       0.02655525      -0.08293694
Pt       2.80721452       3.24149125      22.29206775        3      -0.00284163       0.00245202      -0.04600047
Pt       5.61442760       3.24149123      22.29206789        3       0.02445547      -0.01080950      -0.08298835
Pt       8.42164156       3.24149116      22.29206803        3      -0.02158438      -0.01571002      -0.08300334
Pt       4.21082093       5.67260998      22.29206800        3      -0.00069966      -0.00371769      -0.04609546
Pt       7.01803487       5.67261039      22.29206775        3       0.00089629      -0.00083260      -0.07494181
Pt       9.82524824       5.67261062      22.29206803        3       0.00354044       0.00129665      -0.04606410
Pt      -0.00000058       1.62074570      24.58417378        2      -0.04492262       0.02057318      -0.08043940
Pt       2.80721444       1.62074548      24.58417392        2       0.00520238      -0.00923633       0.00729721
Pt       5.61442778       1.62074537      24.58417373        2       0.04037984       0.02856908      -0.08056585
Pt       1.40360636       4.05186440      24.58417384        2       0.14076807       0.07639050       0.24922685
Pt       4.21082088       4.05186399      24.58417380        2      -0.13653576       0.08368558       0.24918935
Pt       7.01803502       4.05186406      24.58417406        2       0.00453051      -0.04922029      -0.08028379
Pt       2.80721280       6.48298341      24.58417369        2      -0.00419895      -0.16014184       0.24917993
Pt       5.61442796       6.48298324      24.58417387        2       0.00536894       0.00903612       0.00755127
Pt       8.42164221       6.48298340      24.58417380        2      -0.01059446       0.00014727       0.00746563
Pt       0.01112160       0.01967103      26.90568620        1      -0.00470985      -0.01863130      -0.00742725
Pt       2.80721499      -0.00002332      26.92827675        1       0.00001279      -0.00004554      -0.01175752
Pt       5.60387289       0.01950273      26.90627824        1       0.00263292      -0.01360669      -0.00276791
Pt       1.39195954       2.41213620      26.90627540        1       0.01040422       0.00913486      -0.00273659
Pt       4.22233658       2.41158348      26.90566578        1      -0.01378128       0.01339975      -0.00745233
Pt       7.01803297       2.43110056      26.92480138        1       0.00000374      -0.00003318       0.00275447
Pt       2.80721166       4.86212175      26.99539305        1      -0.00000642       0.00007041       0.00341540
Pt       5.63662461       4.86162153      26.90628536        1      -0.01302682       0.00439957      -0.00279817
Pt       8.39900469       4.86200663      26.90567280        1       0.01848038       0.00514356      -0.00744114
N        2.80721443       4.86225228      29.15363959        0       0.00001233       0.00000733      -0.01612816
H        2.32266625       5.70463503      29.49041141        0       0.02179716      -0.03686641       0.00233490
H        3.77892395       4.86081135      29.49067680        0      -0.04280797      -0.00013255       0.00189339
H        2.32005496       4.02158639      29.49094449        0       0.02099127       0.03725610       0.00146966
