40
Lattice="8.421641763931781 0.0 0.0 4.2108208819658905 7.293355709136913 0.0 0.0 0.0 46.87624170604845" Properties=species:S:1:pos:R:3:tags:I:1:forces:R:3 charge=0 spin=0 energy=-206.99281764945152 free_energy=-206.99281764945152 stress="0.010041414760053158 -9.205518836097326e-08 -1.801376647847519e-08 -9.205518836097326e-08 0.010041456669569016 -1.075965272434587e-08 -1.801376647847519e-08 -1.075965272434587e-08 -0.00017483948613516986" pbc="T T T"
Pt      -0.00000003       0.00000022      19.95723434        4      -0.00371314       0.00376696       0.02212220
Pt       2.80721396      -0.00000018      19.95723452        4      -0.00000275       0.00000217       0.02435759
Pt       5.61442778      -0.00000004      19.95723454        4       0.00252654       0.00433852       0.02149848
Pt       1.40360719       2.43111838      19.95723440        4      -0.00501691       0.00002465       0.02151692
Pt       4.21082079       2.43111832      19.95723449        4       0.00512401       0.00134099       0.02214570
Pt       7.01803484       2.43111842      19.95723441        4      -0.00000187       0.00000080      -0.04319640
Pt       2.80721406       4.86223725      19.95723409        4       0.00000200      -0.00000144       0.01857419
Pt       5.61442803       4.86223733      19.95723425        4       0.00248835      -0.00436208       0.02149907
Pt       8.42164141       4.86223723      19.95723442        4      -0.00140633      -0.00511160       0.02216854
Pt       1.40360730       0.81037260      22.29206788        3      -0.00163631      -0.00141254      -0.07427920
Pt       4.21082126       0.81037254      22.29206791        3      -0.00036973       0.00211083      -0.07422694
Pt       7.01803479       0.81037259      22.29206783        3      -0.00149427       0.02584232      -0.08389441
Pt       2.80721452       3.24149125      22.29206775        3      -0.00226726       0.00214733      -0.04518704
Pt       5.61442760       3.24149123      22.29206789        3       0.02315854      -0.01165134      -0.08393503
Pt       8.42164156       3.24149116      22.29206803        3      -0.02165602      -0.01418488      -0.08394629
Pt       4.21082093       5.67260998      22.29206800        3      -0.00073349      -0.00308104      -0.04528467
Pt       7.01803487       5.67261039      22.29206775        3       0.00199552      -0.00069567      -0.07437745
Pt       9.82524824       5.67261062      22.29206803        3       0.00299812       0.00093479      -0.04524511
Pt      -0.00000058       1.62074570      24.58417378        2      -0.03956648       0.01976554      -0.06712030
Pt       2.80721444       1.62074548      24.58417392        2       0.00404482      -0.01047204       0.01776724
Pt       5.61442778       1.62074537      24.58417373        2       0.03695215       0.02438477      -0.06720882
Pt       1.40360636       4.05186440      24.58417384        2       0.14018486       0.07560752       0.24151677
Pt       4.21082088       4.05186399      24.58417380        2      -0.13554125       0.08361195       0.24149017
Pt       7.01803502       4.05186406      24.58417406        2       0.00260643      -0.04415020      -0.06696996
Pt       2.80721280       6.48298341      24.58417369        2      -0.00462113      -0.15921590       0.24151812
Pt       5.61442796       6.48298324      24.58417387        2       0.00705858       0.00868155       0.01799918
Pt       8.42164221       6.48298340      24.58417380        2      -0.01111375       0.00179209       0.01794548
Pt       0.00732295       0.01564139      26.90707944        1       0.02594019       0.01448435      -0.01257497
Pt       2.80721729       0.00000144      26.92918738        1       0.00000385      -0.00000532      -0.01948277
Pt       5.60734986       0.01635398      26.90784385        1      -0.02477395       0.01367578      -0.01246487
Pt       1.39297847       2.41680320      26.90783733        1       0.00054411      -0.02829125      -0.01242385
Pt       4.22070522       2.41696158      26.90707571        1      -0.00043014      -0.02971052      -0.01268331
Pt       7.01803215       2.43111860      26.92455779        1       0.00000169       0.00000109      -0.00622787
Pt       2.80721437       4.86223592      26.99523942        1       0.00000132       0.00000426       0.03444976
Pt       5.63213534       4.86019950      26.90784037        1       0.02423040       0.01461877      -0.01244510
Pt       8.40443696       4.86075356      26.90707797        1      -0.02551627       0.01521278      -0.01262885
N        2.80721504       4.86223743      29.15768929        0      -0.00011757      -0.00006239      -0.03582905
H        3.64916744       5.34739343      29.49437696        0      -0.03804570      -0.02192149       0.00171666
H        2.80639564       3.89050353      29.49437727        0       0.00004486       0.04402782       0.00167727
H        1.96607711       5.34881195      29.49437942        0       0.03811795      -0.02204794       0.00166893
