40
Lattice="8.421641763931781 0.0 0.0 4.2108208819658905 7.293355709136913 0.0 0.0 0.0 46.87624170604845" Properties=species:S:1:pos:R:3:tags:I:1:forces:R:3 charge=0 spin=0 energy=-206.99320484122399 free_energy=-206.99320484122399 stress="0.009987914003431797 -8.140301588355214e-08 1.5183925228257067e-08 -8.140301588355214e-08 0.00998793262988329 -7.750025332597943e-08 1.5183925228257067e-08 -7.750025332597943e-08 -0.0002658643643371761" pbc="T T T"
Pt      -0.00000003       0.00000022      19.95723434        4      -0.00418249       0.00381436       0.02204239
Pt       2.80721396      -0.00000018      19.95723452        4      -0.00000227       0.00000175       0.02405163
Pt       5.61442778      -0.00000004      19.95723454        4       0.00290345       0.00434397       0.02141809
Pt       1.40360719       2.43111838      19.95723440        4      -0.00521288       0.00034972       0.02143751
Pt       4.21082079       2.43111832      19.95723449        4       0.00540333       0.00172419       0.02206527
Pt       7.01803484       2.43111842      19.95723441        4      -0.00000160       0.00000157      -0.04359112
Pt       2.80721406       4.86223725      19.95723409        4       0.00000209      -0.00000204       0.01870298
Pt       5.61442803       4.86223733      19.95723425        4       0.00230684      -0.00469136       0.02141512
Pt       8.42164141       4.86223723      19.95723442        4      -0.00121456      -0.00554207       0.02208756
Pt       1.40360730       0.81037260      22.29206788        3      -0.00182483      -0.00140352      -0.07708503
Pt       4.21082126       0.81037254      22.29206791        3      -0.00026363       0.00227107      -0.07703341
Pt       7.01803479       0.81037259      22.29206783        3      -0.00180364       0.02752114      -0.08312412
Pt       2.80721452       3.24149125      22.29206775        3      -0.00223586       0.00141770      -0.04428396
Pt       5.61442760       3.24149123      22.29206789        3       0.02476725      -0.01222353      -0.08317138
Pt       8.42164156       3.24149116      22.29206803        3      -0.02295262      -0.01529231      -0.08318064
Pt       4.21082093       5.67260998      22.29206800        3      -0.00012208      -0.00269710      -0.04437558
Pt       7.01803487       5.67261039      22.29206775        3       0.00208344      -0.00086747      -0.07717818
Pt       9.82524824       5.67261062      22.29206803        3       0.00235706       0.00126932      -0.04433692
Pt      -0.00000058       1.62074570      24.58417378        2      -0.04373342       0.02323073      -0.07228784
Pt       2.80721444       1.62074548      24.58417392        2       0.00406976      -0.00394311       0.00051915
Pt       5.61442778       1.62074537      24.58417373        2       0.04205239       0.02626231      -0.07240400
Pt       1.40360636       4.05186440      24.58417384        2       0.14112659       0.07662063       0.24705218
Pt       4.21082088       4.05186399      24.58417380        2      -0.13687025       0.08396047       0.24701306
Pt       7.01803502       4.05186406      24.58417406        2       0.00167615      -0.04949819      -0.07212475
Pt       2.80721280       6.48298341      24.58417369        2      -0.00423383      -0.16055544       0.24703442
Pt       5.61442796       6.48298324      24.58417387        2       0.00137956       0.00541624       0.00076659
Pt       8.42164221       6.48298340      24.58417380        2      -0.00547567      -0.00151898       0.00069806
Pt       0.01039536       0.01829744      26.90615313        1       0.00166104      -0.00248485      -0.00733590
Pt       2.80721389       0.00000020      26.92152269        1       0.00000778      -0.00000456       0.00601943
Pt       5.60462500       0.01820890      26.90677290        1      -0.00085226      -0.00237562      -0.00825190
Pt       1.39273016       2.41352830      26.90676888        1       0.00250062       0.00042902      -0.00820597
Pt       4.22147313       2.41298162      26.90613765        1      -0.00301750      -0.00020947      -0.00738998
Pt       7.01803260       2.43111313      26.92728051        1      -0.00000018       0.00001264      -0.00517630
Pt       2.80721374       4.86224106      26.99551739        1       0.00000122      -0.00000489      -0.02150841
Pt       5.63510409       4.86161693      26.90678938        1      -0.00163906       0.00196313      -0.00829372
Pt       8.40059648       4.86207563      26.90615843        1       0.00134534       0.00269975      -0.00740701
N        2.80721673       4.86223720      29.14821815        0       0.00006541      -0.00002215       0.02182906
H        2.80782856       5.83208449      29.48833493        0      -0.00001747      -0.00515215       0.00120901
H        3.64682473       4.37678329      29.48833567        0      -0.00450955       0.00262230       0.00117621
H        1.96699883       4.37784336      29.48833693        0       0.00445677       0.00255686       0.00120843
