40
Lattice="8.421641763931781 0.0 0.0 4.2108208819658905 7.293355709136913 0.0 0.0 0.0 46.87624170604845" Properties=species:S:1:pos:R:3:tags:I:1:forces:R:3 charge=0 spin=0 energy=-206.99317241629723 free_energy=-206.99317241629723 stress="0.010014018043875694 -8.19293575204938e-08 -1.4184184493615248e-08 -8.19293575204938e-08 0.010014037601649761 3.903227963064637e-09 -1.4184184493615248e-08 3.903227963064637e-09 -0.00022641451505478472" pbc="T T T"
Pt      -0.00000003       0.00000022      19.95723434        4      -0.00375236       0.00403664       0.02208516
Pt       2.80721396      -0.00000018      19.95723452        4      -0.00000295       0.00000213       0.02414648
Pt       5.61442778      -0.00000004      19.95723454        4       0.00252946       0.00453758       0.02146215
Pt       1.40360719       2.43111838      19.95723440        4      -0.00519017      -0.00007149       0.02148115
Pt       4.21082079       2.43111832      19.95723449        4       0.00537752       0.00124173       0.02210861
Pt       7.01803484       2.43111842      19.95723441        4      -0.00000201       0.00000058      -0.04331799
Pt       2.80721406       4.86223725      19.95723409        4       0.00000183      -0.00000090       0.01869749
Pt       5.61442803       4.86223733      19.95723425        4       0.00265848      -0.00446509       0.02146453
Pt       8.42164141       4.86223723      19.95723442        4      -0.00162013      -0.00528186       0.02213245
Pt       1.40360730       0.81037260      22.29206788        3      -0.00174020      -0.00134117      -0.07373375
Pt       4.21082126       0.81037254      22.29206791        3      -0.00025723       0.00216768      -0.07368497
Pt       7.01803479       0.81037259      22.29206783        3      -0.00145410       0.02618103      -0.08346682
Pt       2.80721452       3.24149125      22.29206775        3      -0.00225331       0.00242458      -0.04669730
Pt       5.61442760       3.24149123      22.29206789        3       0.02343111      -0.01186022      -0.08351206
Pt       8.42164156       3.24149116      22.29206803        3      -0.02197089      -0.01431490      -0.08352551
Pt       4.21082093       5.67260998      22.29206800        3      -0.00097771      -0.00320806      -0.04678635
Pt       7.01803487       5.67261039      22.29206775        3       0.00198796      -0.00082356      -0.07383197
Pt       9.82524824       5.67261062      22.29206803        3       0.00322674       0.00078562      -0.04675059
Pt      -0.00000058       1.62074570      24.58417378        2      -0.04199733       0.02139158      -0.08179800
Pt       2.80721444       1.62074548      24.58417392        2       0.00404368      -0.00840126       0.00948214
Pt       5.61442778       1.62074537      24.58417373        2       0.03959110       0.02568764      -0.08192711
Pt       1.40360636       4.05186440      24.58417384        2       0.14046809       0.07581571       0.24964528
Pt       4.21082088       4.05186399      24.58417380        2      -0.13586049       0.08375872       0.24960537
Pt       7.01803502       4.05186406      24.58417406        2       0.00240994      -0.04706188      -0.08164257
Pt       2.80721280       6.48298341      24.58417369        2      -0.00456995      -0.15956636       0.24964662
Pt       5.61442796       6.48298324      24.58417387        2       0.00524116       0.00764572       0.00975698
Pt       8.42164221       6.48298340      24.58417380        2      -0.00932218       0.00074183       0.00968185
Pt       0.01116660       0.01929501      26.90613474        1      -0.00264407      -0.01714147      -0.00725651
Pt       2.80721542      -0.00000384      26.92861311        1       0.00000754      -0.00001262      -0.00936380
Pt       5.60390669       0.01980144      26.90686319        1       0.00260240      -0.01730662      -0.00713945
Pt       1.39172759       2.41209153      26.90686448        1       0.01362353       0.01093219      -0.00713547
Pt       4.22193384       2.41180150      26.90611054        1      -0.01346467       0.01088225      -0.00728664
Pt       7.01803409       2.43112203      26.92229952        1       0.00000055       0.00001021       0.00710804
Pt       2.80721425       4.86223820      26.99502502        1      -0.00000039      -0.00000178       0.00944721
Pt       5.63683142       4.86146415      26.90686965        1      -0.01621683       0.00637399      -0.00717323
Pt       8.39936273       4.86225982      26.90612539        1       0.01609578       0.00624556      -0.00729673
N        2.80721361       4.86223713      29.15419445        0      -0.00005175      -0.00001285      -0.01992250
H        3.64773007       5.35001683      29.49103297        0      -0.04102442      -0.02378757       0.00177620
H        2.80938524       3.89043721      29.49103167        0      -0.00008775       0.04745987       0.00176586
H        1.96452390       5.34625510      29.49103307        0       0.04116379      -0.02366326       0.00175570
