40
Lattice="8.421641763931781 0.0 0.0 4.2108208819658905 7.293355709136913 0.0 0.0 0.0 46.87624170604845" Properties=species:S:1:pos:R:3:tags:I:1:forces:R:3 charge=0 spin=0 energy=-206.99382091483238 free_energy=-206.99382091483238 stress="0.009970820508897305 -1.4456257702022413e-07 8.946124729902749e-09 -1.4456257702022413e-07 0.009970732033252716 8.535549795851693e-07 8.946124729902749e-09 8.535549795851693e-07 -0.00027657902683131397" pbc="T T T"
Pt      -0.00000003       0.00000022      19.95723434        4      -0.00391232       0.00400597       0.02244086
Pt       2.80721396      -0.00000018      19.95723452        4      -0.00000365       0.00000148       0.02379907
Pt       5.61442778      -0.00000004      19.95723454        4       0.00280320       0.00453419       0.02114343
Pt       1.40360719       2.43111838      19.95723440        4      -0.00532993       0.00016801       0.02115902
Pt       4.21082079       2.43111832      19.95723449        4       0.00543587       0.00139990       0.02246499
Pt       7.01803484       2.43111842      19.95723441        4      -0.00000197       0.00000445      -0.04378852
Pt       2.80721406       4.86223725      19.95723409        4       0.00000252      -0.00000417       0.01839630
Pt       5.61442803       4.86223733      19.95723425        4       0.00252488      -0.00470182       0.02114214
Pt       8.42164141       4.86223723      19.95723442        4      -0.00151663      -0.00540723       0.02248308
Pt       1.40360730       0.81037260      22.29206788        3      -0.00101005      -0.00045920      -0.07562619
Pt       4.21082126       0.81037254      22.29206791        3       0.00014790       0.00109830      -0.07558411
Pt       7.01803479       0.81037259      22.29206783        3      -0.00260261       0.02705893      -0.08310036
Pt       2.80721452       3.24149125      22.29206775        3      -0.00301823       0.00210438      -0.04584265
Pt       5.61442760       3.24149123      22.29206789        3       0.02475497      -0.01130964      -0.08311582
Pt       8.42164156       3.24149116      22.29206803        3      -0.02214479      -0.01574720      -0.08313283
Pt       4.21082093       5.67260998      22.29206800        3      -0.00032767      -0.00371806      -0.04592462
Pt       7.01803487       5.67261039      22.29206775        3       0.00085963      -0.00062689      -0.07571438
Pt       9.82524824       5.67261062      22.29206803        3       0.00333821       0.00159570      -0.04589283
Pt      -0.00000058       1.62074570      24.58417378        2      -0.04681153       0.01650872      -0.07982177
Pt       2.80721444       1.62074548      24.58417392        2       0.00702838      -0.00071966       0.00074640
Pt       5.61442778       1.62074537      24.58417373        2       0.03774916       0.03233066      -0.07994281
Pt       1.40360636       4.05186440      24.58417384        2       0.13743630       0.07388715       0.24859433
Pt       4.21082088       4.05186399      24.58417380        2      -0.13269678       0.08207618       0.24856304
Pt       7.01803502       4.05186406      24.58417406        2       0.00905343      -0.04881025      -0.07969993
Pt       2.80721280       6.48298341      24.58417369        2      -0.00471299      -0.15587901       0.24828994
Pt       5.61442796       6.48298324      24.58417387        2      -0.00285984       0.00634148       0.00096265
Pt       8.42164221       6.48298340      24.58417380        2      -0.00419610      -0.00571099       0.00087703
Pt       0.00990241       0.01734638      26.90855890        1      -0.00470044      -0.01133635      -0.01975705
Pt       2.80721388      -0.00001209      26.91925595        1       0.00000263       0.00005816       0.02063393
Pt       5.60173139       0.02304664      26.90648831        1       0.01336711      -0.02630036      -0.00370310
Pt       1.38998779       2.40859461      26.90651597        1       0.01631347       0.02502191      -0.00374406
Pt       4.22089472       2.41387485      26.90856931        1      -0.00769618       0.01005607      -0.01991165
Pt       7.01803380       2.43110238      26.92397134        1      -0.00000263       0.00007142       0.00726408
Pt       2.80721233       4.86238859      26.99169234        1       0.00000167       0.00000129      -0.00058239
Pt       5.64074856       4.86166932      26.90652223        1      -0.02966084       0.00169810      -0.00379124
Pt       8.40166285       4.86208999      26.90857977        1       0.01238056       0.00168339      -0.01988661
N        2.80721265       4.86238456      29.14542953        0       0.00016641       0.00000896       0.02408389
H        2.32085767       5.70068070      29.48724903        0      -0.00184000       0.00380627      -0.00268868
H        3.77656847       4.86413331      29.48667227        0       0.00445722      -0.00063445      -0.00153004
H        2.32422299       4.02171437      29.48609616        0      -0.00277853      -0.00415579      -0.00026275
