36
Lattice="8.421641763931781 0.0 0.0 4.2108208819658905 7.293355709136913 0.0 0.0 0.0 46.87624170604845" Properties=species:S:1:pos:R:3:tags:I:1:forces:R:3 charge=0 spin=0 energy=-186.93033381965532 free_energy=-186.93033381965532 stress="0.00856211967766285 -1.6682342174334508e-09 -2.2410372169101578e-10 -1.6682342174334508e-09 0.008562121540307999 -2.8165838550364697e-09 -2.2410372169101578e-10 -2.8165838550364697e-09 -0.0033283375669270754" pbc="T T T"
Pt       0.00000000       0.00000000      20.00000000        4       0.00000201      -0.00000295      -0.22563674
Pt       2.80721392       0.00000000      20.00000000        4       0.00000026      -0.00000209      -0.22563586
Pt       5.61442784       0.00000000      20.00000000        4      -0.00000249      -0.00000128      -0.22563517
Pt       1.40360696       2.43111857      20.00000000        4       0.00000123       0.00000008      -0.22563802
Pt       4.21082088       2.43111857      20.00000000        4       0.00000190       0.00000007      -0.22563614
Pt       7.01803480       2.43111857      20.00000000        4      -0.00000251      -0.00000026      -0.22563817
Pt       2.80721392       4.86223714      20.00000000        4       0.00000078       0.00000099      -0.22563761
Pt       5.61442784       4.86223714      20.00000000        4      -0.00000237       0.00000165      -0.22563598
Pt       8.42164176       4.86223714      20.00000000        4       0.00000146       0.00000265      -0.22563736
Pt       1.40360696       0.81037286      22.29208057        3       0.00000148      -0.00000387       0.21236129
Pt       4.21082088       0.81037286      22.29208057        3       0.00000369      -0.00000315       0.21236093
Pt       7.01803480       0.81037286      22.29208057        3      -0.00000393      -0.00000295       0.21236150
Pt       2.80721392       3.24149143      22.29208057        3       0.00000089      -0.00000075       0.21235915
Pt       5.61442784       3.24149143      22.29208057        3      -0.00000339       0.00000014       0.21236056
Pt       8.42164176       3.24149143      22.29208057        3       0.00000271       0.00000091       0.21236099
Pt       4.21082088       5.67261000      22.29208057        3       0.00000481       0.00000159       0.21235870
Pt       7.01803480       5.67261000      22.29208057        3      -0.00000232       0.00000348       0.21235976
Pt       9.82524872       5.67261000      22.29208057        3      -0.00000263       0.00000395       0.21236125
Pt       0.00000000       1.62074571      24.58416114        2       0.00000324      -0.00000153      -0.21236044
Pt       2.80721392       1.62074571      24.58416114        2       0.00000094      -0.00000286      -0.21236001
Pt       5.61442784       1.62074571      24.58416114        2      -0.00000300      -0.00000312      -0.21236070
Pt       1.40360696       4.05186428      24.58416114        2      -0.00000291       0.00000155      -0.21236053
Pt       4.21082088       4.05186428      24.58416114        2       0.00000484      -0.00000004      -0.21235991
Pt       7.01803480       4.05186428      24.58416114        2      -0.00000247       0.00000014      -0.21236070
Pt       2.80721392       6.48298285      24.58416114        2      -0.00000712       0.00000227      -0.21236089
Pt       5.61442784       6.48298285      24.58416114        2      -0.00000172       0.00000229      -0.21236086
Pt       8.42164176       6.48298285      24.58416114        2       0.00000523       0.00000377      -0.21235973
Pt       0.00000000       0.00000000      26.87624171        1       0.00000266      -0.00000212       0.22563723
Pt       2.80721392       0.00000000      26.87624171        1       0.00000062      -0.00000138       0.22563599
Pt       5.61442784       0.00000000      26.87624171        1      -0.00000218      -0.00000206       0.22563437
Pt       1.40360696       2.43111857      26.87624171        1       0.00000115      -0.00000023       0.22563818
Pt       4.21082088       2.43111857      26.87624171        1       0.00000202      -0.00000041       0.22563627
Pt       7.01803480       2.43111857      26.87624171        1      -0.00000244       0.00000019       0.22563827
Pt       2.80721392       4.86223714      26.87624171        1       0.00000040       0.00000167       0.22563742
Pt       5.61442784       4.86223714      26.87624171        1      -0.00000230       0.00000112       0.22563589
Pt       8.42164176       4.86223714      26.87624171        1       0.00000162       0.00000277       0.22563696
