36
Lattice="8.421641763931781 0.0 0.0 4.2108208819658905 7.293355709136913 0.0 0.0 0.0 46.87624170604845" Properties=species:S:1:pos:R:3:tags:I:1:forces:R:3 charge=0 spin=0 energy=-187.00367709663286 free_energy=-187.00367709663286 stress="0.010496662929654121 2.075003058266134e-09 4.5348902411035397e-10 2.075003058266134e-09 0.010496673174202442 -8.713512134050916e-10 4.5348902411035397e-10 -8.713512134050916e-10 4.624209032044746e-05" pbc="T T T"
Pt      -0.00000000       0.00000021      19.95723433        4       0.00000197      -0.00000196       0.01627973
Pt       2.80721396      -0.00000008      19.95723446        4      -0.00000272       0.00000187       0.01627120
Pt       5.61442779      -0.00000016      19.95723449        4       0.00000040       0.00000276       0.01627116
Pt       1.40360720       2.43111835      19.95723435        4      -0.00000155       0.00000274       0.01628110
Pt       4.21082080       2.43111834      19.95723443        4       0.00000227       0.00000218       0.01627222
Pt       7.01803483       2.43111844      19.95723431        4      -0.00000069       0.00000156       0.01628041
Pt       2.80721405       4.86223724      19.95723403        4       0.00000066      -0.00000324       0.01628110
Pt       5.61442805       4.86223734      19.95723421        4      -0.00000190      -0.00000264       0.01628064
Pt       8.42164144       4.86223725      19.95723437        4       0.00000140      -0.00000470       0.01627973
Pt       1.40360728       0.81037258      22.29206792        3      -0.00000298       0.00000283      -0.04298398
Pt       4.21082126       0.81037248      22.29206794        3      -0.00000174       0.00000526      -0.04298329
Pt       7.01803474       0.81037256      22.29206786        3       0.00000145       0.00000418      -0.04298603
Pt       2.80721448       3.24149124      22.29206779        3      -0.00000866       0.00000257      -0.04298440
Pt       5.61442762       3.24149125      22.29206790        3       0.00000447       0.00000192      -0.04298587
Pt       8.42164155       3.24149130      22.29206809        3       0.00000378       0.00000101      -0.04298960
Pt       4.21082091       5.67260997      22.29206801        3       0.00000135       0.00000239      -0.04298494
Pt       7.01803488       5.67261037      22.29206781        3      -0.00000360      -0.00000582      -0.04298314
Pt       9.82524819       5.67261065      22.29206808        3       0.00000596      -0.00001146      -0.04298681
Pt      -0.00000056       1.62074567      24.58417371        2       0.00000327      -0.00000093       0.04298823
Pt       2.80721444       1.62074547      24.58417389        2      -0.00000791       0.00000548       0.04298218
Pt       5.61442780       1.62074536      24.58417372        2       0.00000398       0.00000838       0.04298417
Pt       1.40360637       4.05186441      24.58417386        2       0.00000693      -0.00000366       0.04298612
Pt       4.21082088       4.05186402      24.58417378        2       0.00000026       0.00000520       0.04298601
Pt       7.01803505       4.05186404      24.58417403        2      -0.00000439       0.00000238       0.04298706
Pt       2.80721282       6.48298342      24.58417366        2       0.00001410      -0.00000838       0.04298531
Pt       5.61442796       6.48298327      24.58417384        2      -0.00000585      -0.00000389       0.04298353
Pt       8.42164224       6.48298339      24.58417376        2      -0.00000906      -0.00000777       0.04298466
Pt       0.00000048      -0.00000001      26.91900752        1      -0.00000029       0.00000294      -0.01628070
Pt       2.80721392      -0.00000012      26.91900726        1      -0.00000097       0.00000155      -0.01627059
Pt       5.61442779      -0.00000012      26.91900712        1       0.00000076       0.00000148      -0.01626993
Pt       1.40360733       2.43111851      26.91900745        1      -0.00000162       0.00000130      -0.01628174
Pt       4.21082083       2.43111854      26.91900724        1       0.00000224       0.00000138      -0.01627211
Pt       7.01803490       2.43111865      26.91900730        1       0.00000005      -0.00000060      -0.01628026
Pt       2.80721394       4.86223727      26.91900756        1      -0.00000342      -0.00000216      -0.01628134
Pt       5.61442796       4.86223741      26.91900730        1      -0.00000033      -0.00000315      -0.01628030
Pt       8.42164127       4.86223711      26.91900735        1       0.00000250      -0.00000103      -0.01627973
