36
Lattice="8.421641763931781 0.0 0.0 4.2108208819658905 7.293355709136913 0.0 0.0 0.0 46.87624170604845" Properties=species:S:1:pos:R:3:tags:I:1:forces:R:3 charge=0 spin=0 energy=-186.93033381965532 free_energy=-186.93033381965532 stress="0.00856211967766285 -1.6274402936389265e-09 -5.802399116738854e-10 -1.6274402936389265e-09 0.008562121540307999 -2.576632684991864e-09 -5.802399116738854e-10 -2.576632684991864e-09 -0.003328339196741581" pbc="T T T"
Pt       0.00000000       0.00000000      20.00000000        4       0.00000198      -0.00000295      -0.22563666
Pt       2.80721392       0.00000000      20.00000000        4       0.00000033      -0.00000213      -0.22563578
Pt       5.61442784       0.00000000      20.00000000        4      -0.00000249      -0.00000133      -0.22563522
Pt       1.40360696       2.43111857      20.00000000        4       0.00000126       0.00000007      -0.22563797
Pt       4.21082088       2.43111857      20.00000000        4       0.00000194       0.00000013      -0.22563614
Pt       7.01803480       2.43111857      20.00000000        4      -0.00000259      -0.00000029      -0.22563814
Pt       2.80721392       4.86223714      20.00000000        4       0.00000080       0.00000095      -0.22563754
Pt       5.61442784       4.86223714      20.00000000        4      -0.00000235       0.00000165      -0.22563593
Pt       8.42164176       4.86223714      20.00000000        4       0.00000145       0.00000264      -0.22563733
Pt       1.40360696       0.81037286      22.29208057        3       0.00000147      -0.00000385       0.21236126
Pt       4.21082088       0.81037286      22.29208057        3       0.00000368      -0.00000317       0.21236089
Pt       7.01803480       0.81037286      22.29208057        3      -0.00000392      -0.00000293       0.21236154
Pt       2.80721392       3.24149143      22.29208057        3       0.00000090      -0.00000073       0.21235913
Pt       5.61442784       3.24149143      22.29208057        3      -0.00000340       0.00000016       0.21236055
Pt       8.42164176       3.24149143      22.29208057        3       0.00000270       0.00000091       0.21236104
Pt       4.21082088       5.67261000      22.29208057        3       0.00000481       0.00000162       0.21235864
Pt       7.01803480       5.67261000      22.29208057        3      -0.00000233       0.00000351       0.21235973
Pt       9.82524872       5.67261000      22.29208057        3      -0.00000260       0.00000391       0.21236126
Pt       0.00000000       1.62074571      24.58416114        2       0.00000323      -0.00000150      -0.21236050
Pt       2.80721392       1.62074571      24.58416114        2       0.00000096      -0.00000287      -0.21235998
Pt       5.61442784       1.62074571      24.58416114        2      -0.00000302      -0.00000312      -0.21236070
Pt       1.40360696       4.05186428      24.58416114        2      -0.00000293       0.00000155      -0.21236061
Pt       4.21082088       4.05186428      24.58416114        2       0.00000484      -0.00000004      -0.21235988
Pt       7.01803480       4.05186428      24.58416114        2      -0.00000247       0.00000014      -0.21236070
Pt       2.80721392       6.48298285      24.58416114        2      -0.00000714       0.00000227      -0.21236089
Pt       5.61442784       6.48298285      24.58416114        2      -0.00000175       0.00000224      -0.21236086
Pt       8.42164176       6.48298285      24.58416114        2       0.00000522       0.00000381      -0.21235974
Pt       0.00000000       0.00000000      26.87624171        1       0.00000261      -0.00000212       0.22563721
Pt       2.80721392       0.00000000      26.87624171        1       0.00000071      -0.00000138       0.22563596
Pt       5.61442784       0.00000000      26.87624171        1      -0.00000216      -0.00000208       0.22563437
Pt       1.40360696       2.43111857      26.87624171        1       0.00000124      -0.00000030       0.22563833
Pt       4.21082088       2.43111857      26.87624171        1       0.00000195      -0.00000039       0.22563632
Pt       7.01803480       2.43111857      26.87624171        1      -0.00000247       0.00000011       0.22563827
Pt       2.80721392       4.86223714      26.87624171        1       0.00000053       0.00000164       0.22563739
Pt       5.61442784       4.86223714      26.87624171        1      -0.00000225       0.00000111       0.22563589
Pt       8.42164176       4.86223714      26.87624171        1       0.00000154       0.00000283       0.22563696
