36
Lattice="8.421641763931781 0.0 0.0 4.2108208819658905 7.293355709136913 0.0 0.0 0.0 46.87624170604845" Properties=species:S:1:pos:R:3:tags:I:1:forces:R:3 charge=0 spin=0 energy=-187.00367709663286 free_energy=-187.00367709663286 stress="0.01049667689949274 9.150601942842229e-10 1.3918276531299512e-09 9.150601942842229e-10 0.010496689938008785 -3.199945308729468e-10 1.3918276531299512e-09 -3.199945308729468e-10 4.626686131814495e-05" pbc="T T T"
Pt      -0.00000001       0.00000022      19.95723425        4       0.00000275      -0.00000208       0.01627985
Pt       2.80721397      -0.00000009      19.95723437        4      -0.00000182       0.00000202       0.01627941
Pt       5.61442779      -0.00000006      19.95723442        4      -0.00000125       0.00000324       0.01627114
Pt       1.40360720       2.43111836      19.95723428        4       0.00000019       0.00000145       0.01628102
Pt       4.21082081       2.43111834      19.95723435        4       0.00000182       0.00000126       0.01628079
Pt       7.01803481       2.43111842      19.95723424        4      -0.00000177       0.00000115       0.01628041
Pt       2.80721405       4.86223723      19.95723396        4       0.00000103      -0.00000378       0.01628132
Pt       5.61442805       4.86223729      19.95723414        4      -0.00000185      -0.00000307       0.01628024
Pt       8.42164141       4.86223719      19.95723428        4       0.00000103      -0.00000083       0.01627958
Pt       1.40360726       0.81037260      22.29206791        3      -0.00000142       0.00000222      -0.04298754
Pt       4.21082130       0.81037249      22.29206785        3      -0.00000312       0.00000636      -0.04298838
Pt       7.01803472       0.81037257      22.29206783        3       0.00000170       0.00000212      -0.04298632
Pt       2.80721450       3.24149124      22.29206777        3      -0.00000679       0.00000137      -0.04298754
Pt       5.61442762       3.24149124      22.29206789        3       0.00000266       0.00000023      -0.04298849
Pt       8.42164156       3.24149128      22.29206809        3       0.00000374       0.00000033      -0.04298907
Pt       4.21082092       5.67260996      22.29206799        3      -0.00000266       0.00000348      -0.04298573
Pt       7.01803487       5.67261037      22.29206782        3      -0.00000236      -0.00000364      -0.04298613
Pt       9.82524820       5.67261064      22.29206809        3       0.00000654      -0.00001119      -0.04298623
Pt      -0.00000052       1.62074570      24.58417379        2       0.00000283      -0.00000117       0.04298738
Pt       2.80721442       1.62074548      24.58417394        2      -0.00000523       0.00000385       0.04298711
Pt       5.61442780       1.62074537      24.58417373        2       0.00000239       0.00000770       0.04298739
Pt       1.40360637       4.05186438      24.58417386        2       0.00000666       0.00000103       0.04298644
Pt       4.21082089       4.05186400      24.58417379        2       0.00000018       0.00000375       0.04298826
Pt       7.01803504       4.05186405      24.58417405        2      -0.00000408       0.00000285       0.04298770
Pt       2.80721281       6.48298343      24.58417366        2       0.00001349      -0.00000911       0.04298506
Pt       5.61442797       6.48298326      24.58417386        2      -0.00000377      -0.00000298       0.04298684
Pt       8.42164223       6.48298340      24.58417377        2      -0.00000959      -0.00000766       0.04298730
Pt       0.00000048       0.00000001      26.91900757        1       0.00000025       0.00000027      -0.01628019
Pt       2.80721396      -0.00000010      26.91900734        1      -0.00000055       0.00000227      -0.01627930
Pt       5.61442779      -0.00000005      26.91900719        1      -0.00000078       0.00000217      -0.01626959
Pt       1.40360723       2.43111849      26.91900751        1       0.00000020       0.00000059      -0.01628043
Pt       4.21082086       2.43111855      26.91900731        1       0.00000178       0.00000057      -0.01628004
Pt       7.01803488       2.43111866      26.91900735        1      -0.00000117      -0.00000068      -0.01628026
Pt       2.80721397       4.86223724      26.91900763        1      -0.00000276      -0.00000207      -0.01628159
Pt       5.61442796       4.86223738      26.91900739        1      -0.00000075      -0.00000225      -0.01628034
Pt       8.42164127       4.86223711      26.91900745        1       0.00000220       0.00000014      -0.01628019
