39
Lattice="8.421641763931781 0.0 0.0 4.2108208819658905 7.293355709136913 0.0 0.0 0.0 46.87624170604845" Properties=species:S:1:pos:R:3:tags:I:1:forces:R:3 charge=0 spin=0 energy=-209.3667068395515 free_energy=-209.3667068395515 stress="0.010483097285032272 1.5160338989517186e-05 -3.5324765121913515e-06 1.5160338989517186e-05 0.010459952056407928 -4.307414656068431e-06 -3.5324765121913515e-06 -4.307414656068431e-06 -0.00010734601528383791" pbc="T T T"
Pt      -0.00000001       0.00000022      19.95723425        4      -0.00073892      -0.00053522       0.01507973
Pt       2.80721397      -0.00000009      19.95723437        4      -0.00057499      -0.00033721       0.01509464
Pt       5.61442779      -0.00000006      19.95723442        4      -0.00076494      -0.00056995       0.01529059
Pt       1.40360720       2.43111836      19.95723428        4      -0.00100845      -0.00031625       0.01518471
Pt       4.21082081       2.43111834      19.95723435        4      -0.00067335      -0.00063377       0.01533827
Pt       7.01803481       2.43111842      19.95723424        4      -0.00073446      -0.00037710       0.01529913
Pt       2.80721405       4.86223723      19.95723396        4      -0.00080947      -0.00081112       0.01509171
Pt       5.61442805       4.86223729      19.95723414        4      -0.00051273      -0.00034686       0.01507880
Pt       8.42164141       4.86223719      19.95723428        4      -0.00048667      -0.00066211       0.01523087
Pt       1.40360726       0.81037260      22.29206791        3      -0.00335907      -0.00247579      -0.04625345
Pt       4.21082130       0.81037249      22.29206785        3      -0.00311764      -0.00148950      -0.04631165
Pt       7.01803472       0.81037257      22.29206783        3      -0.00310936      -0.00239740      -0.04667079
Pt       2.80721450       3.24149124      22.29206777        3      -0.00277675      -0.00140074      -0.04430145
Pt       5.61442762       3.24149124      22.29206789        3      -0.00342234      -0.00140198      -0.04650800
Pt       8.42164156       3.24149128      22.29206809        3      -0.00395836      -0.00206692      -0.03966589
Pt       4.21082092       5.67260996      22.29206799        3      -0.00297263      -0.00159154      -0.04807685
Pt       7.01803487       5.67261037      22.29206782        3      -0.00434852      -0.00133733      -0.04620571
Pt       9.82524820       5.67261064      22.29206809        3      -0.00316119      -0.00153723      -0.04439012
Pt      -0.00000052       1.62074570      24.58417379        2       0.00985160       0.01451839       0.03103920
Pt       2.80721442       1.62074548      24.58417394        2       0.00838546       0.01214623       0.02882534
Pt       5.61442780       1.62074537      24.58417373        2       0.00690830       0.00336309       0.04338428
Pt       1.40360637       4.05186438      24.58417386        2       0.00566791       0.00361621       0.03583843
Pt       4.21082089       4.05186400      24.58417379        2       0.00717420      -0.00045246       0.03267689
Pt       7.01803504       4.05186405      24.58417405        2       0.01792247       0.00039596       0.03105264
Pt       2.80721281       6.48298343      24.58417366        2       0.00291444       0.00444794       0.03217272
Pt       5.61442797       6.48298326      24.58417386        2       0.00823287       0.00498739       0.02466940
Pt       8.42164223       6.48298340      24.58417377        2       0.01413886       0.00059409       0.02925297
Pt       0.01076311       0.01038753      26.91275293        1       0.00020742      -0.02905647       0.01263777
Pt       2.82094058       0.00796397      26.91236643        1      -0.01837882      -0.01238348       0.01601995
Pt       5.62389964       0.00445819      26.91900920        1       0.00948716       0.00826893      -0.01260783
Pt       1.41637532       2.43864511      26.91804555        1      -0.01214631      -0.00481990      -0.00825386
Pt       4.22028013       2.43662245      26.91916428        1       0.01049369       0.00393502      -0.01303593
Pt       7.02853885       2.43662465      26.91719334        1      -0.00128060      -0.00043457      -0.00661767
Pt       2.81908041       4.86831402      26.91626286        1       0.00491277       0.00446248      -0.00327694
Pt       5.62989276       4.86573548      26.91304389        1      -0.02763692       0.01482244       0.01159579
Pt       8.43503377       4.86901961      26.91823861        1      -0.01046825      -0.00819120      -0.00920521
C        4.78441692       5.99497914      32.43381759        0       0.00101758       0.01228354       0.02540146
O        5.01874112       6.14843985      33.58126335        0       0.00606977      -0.00188324       0.01583168
O        4.54932382       5.84273504      31.28763504        0      -0.00694377      -0.01033236      -0.04570581
