39
Lattice="8.421641763931781 0.0 0.0 4.2108208819658905 7.293355709136913 0.0 0.0 0.0 46.87624170604845" Properties=species:S:1:pos:R:3:tags:I:1:forces:R:3 charge=0 spin=0 energy=-209.36390208338696 free_energy=-209.36390208338696 stress="0.010572616942226887 5.1730072300415486e-05 -1.0482228844921337e-06 5.1730072300415486e-05 0.010493737645447254 -4.1151624827762134e-06 -1.0482228844921337e-06 -4.1151624827762134e-06 -2.0849631255259737e-05" pbc="T T T"
Pt      -0.00000001       0.00000022      19.95723425        4      -0.00225988      -0.00201675       0.01511378
Pt       2.80721397      -0.00000009      19.95723437        4      -0.00262316      -0.00189701       0.01531701
Pt       5.61442779      -0.00000006      19.95723442        4      -0.00221337      -0.00160431       0.01541077
Pt       1.40360720       2.43111836      19.95723428        4      -0.00248479      -0.00195584       0.01511889
Pt       4.21082081       2.43111834      19.95723435        4      -0.00209866      -0.00185460       0.01546633
Pt       7.01803481       2.43111842      19.95723424        4      -0.00239842      -0.00177768       0.01578547
Pt       2.80721405       4.86223723      19.95723396        4      -0.00201061      -0.00172381       0.01537517
Pt       5.61442805       4.86223729      19.95723414        4      -0.00232565      -0.00146136       0.01504803
Pt       8.42164141       4.86223719      19.95723428        4      -0.00235914      -0.00173282       0.01513478
Pt       1.40360726       0.81037260      22.29206791        3      -0.01097252      -0.00611044      -0.04553329
Pt       4.21082130       0.81037249      22.29206785        3      -0.01154655      -0.00617323      -0.04667271
Pt       7.01803472       0.81037257      22.29206783        3      -0.01107831      -0.00620147      -0.04448410
Pt       2.80721450       3.24149124      22.29206777        3      -0.01105217      -0.00549441      -0.04610405
Pt       5.61442762       3.24149124      22.29206789        3      -0.01088197      -0.00579088      -0.04472950
Pt       8.42164156       3.24149128      22.29206809        3      -0.01093011      -0.00586980      -0.04230909
Pt       4.21082092       5.67260996      22.29206799        3      -0.01118247      -0.00610458      -0.04445182
Pt       7.01803487       5.67261037      22.29206782        3      -0.01142783      -0.00565022      -0.04576120
Pt       9.82524820       5.67261064      22.29206809        3      -0.01119397      -0.00637207      -0.04616675
Pt      -0.00000052       1.62074570      24.58417379        2       0.02157950       0.01647218       0.05010684
Pt       2.80721442       1.62074548      24.58417394        2       0.02973632       0.01177957       0.03798875
Pt       5.61442780       1.62074537      24.58417373        2       0.03710149       0.02142079       0.04422111
Pt       1.40360637       4.05186438      24.58417386        2       0.02946706       0.01718694       0.04345125
Pt       4.21082089       4.05186400      24.58417379        2       0.03097635       0.02177393       0.03835955
Pt       7.01803504       4.05186405      24.58417405        2       0.02497718       0.00973064       0.04952062
Pt       2.80721281       6.48298343      24.58417366        2       0.03441216       0.01557316       0.03749001
Pt       5.61442797       6.48298326      24.58417386        2       0.02738168       0.01604775       0.04715717
Pt       8.42164223       6.48298340      24.58417377        2       0.02577740       0.01959569       0.03829348
Pt       0.04033852       0.02315289      26.92229027        1      -0.01648212      -0.01197965      -0.02610847
Pt       2.84659657       0.02167468      26.92105449        1      -0.01339931      -0.00624939      -0.01515464
Pt       5.65614147       0.02169837      26.91523759        1      -0.02473099       0.00004303       0.00431954
Pt       1.44338909       2.45137686      26.91666079        1      -0.01622914       0.00499763      -0.00177476
Pt       4.25046929       2.45536075      26.91512131        1      -0.01069998      -0.01988676       0.00443313
Pt       7.05964725       2.45488749      26.92464162        1      -0.02460238      -0.01499288      -0.03820379
Pt       2.84738035       4.88552919      26.92006595        1      -0.01504517      -0.01051978      -0.01431171
Pt       5.65429753       4.88465037      26.92236120        1      -0.01705746      -0.00714340      -0.02679189
Pt       8.45923662       4.88568453      26.91663300        1      -0.00255679      -0.01421322      -0.00158134
C        4.88455253       6.05769689      32.21774761        0       0.01348547       0.01032538      -0.04644422
O        4.92869423       6.08954099      33.39724089        0      -0.00540943      -0.00425657       0.04651870
O        4.84259743       6.02751683      31.03841853        0      -0.00764215      -0.00591392      -0.00304681
