39
Lattice="8.421641763931781 0.0 0.0 4.2108208819658905 7.293355709136913 0.0 0.0 0.0 46.87624170604845" Properties=species:S:1:pos:R:3:tags:I:1:forces:R:3 charge=0 spin=0 energy=-209.36454485987622 free_energy=-209.36454485987622 stress="0.010537546128034592 5.034200148656964e-05 5.222813683758432e-07 5.034200148656964e-05 0.010461069643497467 -2.8703971111099236e-06 5.222813683758432e-07 -2.8703971111099236e-06 -6.563856732100248e-05" pbc="T T T"
Pt      -0.00000001       0.00000022      19.95723425        4      -0.00222629      -0.00191291       0.01511024
Pt       2.80721397      -0.00000009      19.95723437        4      -0.00245315      -0.00176596       0.01534430
Pt       5.61442779      -0.00000006      19.95723442        4      -0.00208045      -0.00171961       0.01539862
Pt       1.40360720       2.43111836      19.95723428        4      -0.00217581      -0.00192081       0.01515399
Pt       4.21082081       2.43111834      19.95723435        4      -0.00212663      -0.00171922       0.01546478
Pt       7.01803481       2.43111842      19.95723424        4      -0.00237388      -0.00174377       0.01571334
Pt       2.80721405       4.86223723      19.95723396        4      -0.00188226      -0.00164494       0.01531665
Pt       5.61442805       4.86223729      19.95723414        4      -0.00226028      -0.00144693       0.01505308
Pt       8.42164141       4.86223719      19.95723428        4      -0.00223764      -0.00143028       0.01516065
Pt       1.40360726       0.81037260      22.29206791        3      -0.01090136      -0.00583500      -0.04466854
Pt       4.21082130       0.81037249      22.29206785        3      -0.01083484      -0.00576750      -0.04570809
Pt       7.01803472       0.81037257      22.29206783        3      -0.01042297      -0.00581120      -0.04493003
Pt       2.80721450       3.24149124      22.29206777        3      -0.01055681      -0.00493628      -0.04523531
Pt       5.61442762       3.24149124      22.29206789        3      -0.01030173      -0.00549094      -0.04515546
Pt       8.42164156       3.24149128      22.29206809        3      -0.01064302      -0.00574305      -0.04331302
Pt       4.21082092       5.67260996      22.29206799        3      -0.01071204      -0.00591891      -0.04515088
Pt       7.01803487       5.67261037      22.29206782        3      -0.01099987      -0.00573651      -0.04490131
Pt       9.82524820       5.67261064      22.29206809        3      -0.01044927      -0.00612616      -0.04527470
Pt      -0.00000052       1.62074570      24.58417379        2       0.02601032       0.01264577       0.03604679
Pt       2.80721442       1.62074548      24.58417394        2       0.02929043       0.00992353       0.03609389
Pt       5.61442780       1.62074537      24.58417373        2       0.03066682       0.01753769       0.03021737
Pt       1.40360637       4.05186438      24.58417386        2       0.03108194       0.01823833       0.03497700
Pt       4.21082089       4.05186400      24.58417379        2       0.02722664       0.01912709       0.03282297
Pt       7.01803504       4.05186405      24.58417405        2       0.02395172       0.01540688       0.03564360
Pt       2.80721281       6.48298343      24.58417366        2       0.03011954       0.01344885       0.03228933
Pt       5.61442797       6.48298326      24.58417386        2       0.02963397       0.01737343       0.03857184
Pt       8.42164223       6.48298340      24.58417377        2       0.02369937       0.02031756       0.03617833
Pt       0.03810194       0.02046048      26.92000134        1      -0.01220077      -0.00236370      -0.01684548
Pt       2.84456764       0.02067390      26.92121024        1      -0.01198007      -0.00593735      -0.01687222
Pt       5.65396337       0.02177409      26.91483846        1      -0.02555698      -0.00978854       0.00709118
Pt       1.44125347       2.45170241      26.91480977        1      -0.01048679      -0.00408708       0.00544375
Pt       4.24966486       2.45358242      26.91470941        1      -0.02085604      -0.01635311       0.00735708
Pt       7.05717441       2.45339667      26.91765432        1      -0.02046123      -0.01227416      -0.00715113
Pt       2.84615974       4.88467057      26.91999724        1      -0.02012722      -0.01266453      -0.01310728
Pt       5.65100718       4.88415298      26.92006326        1      -0.00706910      -0.00856650      -0.01740371
Pt       8.45852478       4.88390861      26.91478527        1      -0.00798642      -0.00563858       0.00569413
C        4.88400066       6.05725167      32.18252112        0       0.03346843       0.02551328      -0.01947216
O        4.92901678       6.08978893      33.36229549        0      -0.01597207      -0.01226746       0.01365374
O        4.84414214       6.02864068      31.00300423        0      -0.01681445      -0.01292155       0.00539261
