39
Lattice="8.421641763931781 0.0 0.0 4.2108208819658905 7.293355709136913 0.0 0.0 0.0 46.87624170604845" Properties=species:S:1:pos:R:3:tags:I:1:forces:R:3 charge=0 spin=0 energy=-209.37125014399487 free_energy=-209.37125014399487 stress="0.010509161278605461 8.470351531286724e-06 -9.400430826644879e-06 8.470351531286724e-06 0.010492091998457909 -7.753294994472526e-06 -9.400430826644879e-06 -7.753294994472526e-06 -4.660704144043848e-05" pbc="T T T"
Pt      -0.00000001       0.00000022      19.95723425        4      -0.00069851      -0.00036180       0.01525721
Pt       2.80721397      -0.00000009      19.95723437        4      -0.00037375      -0.00021669       0.01544726
Pt       5.61442779      -0.00000006      19.95723442        4      -0.00042866      -0.00070903       0.01530878
Pt       1.40360720       2.43111836      19.95723428        4      -0.00009169      -0.00045338       0.01555897
Pt       4.21082081       2.43111834      19.95723435        4      -0.00060913      -0.00019255       0.01531378
Pt       7.01803481       2.43111842      19.95723424        4      -0.00101326      -0.00045532       0.01524784
Pt       2.80721405       4.86223723      19.95723396        4      -0.00027528      -0.00048138       0.01504171
Pt       5.61442805       4.86223729      19.95723414        4      -0.00036014      -0.00038203       0.01518808
Pt       8.42164141       4.86223719      19.95723428        4      -0.00023453       0.00012328       0.01545541
Pt       1.40360726       0.81037260      22.29206791        3      -0.00219191      -0.00151364      -0.04550646
Pt       4.21082130       0.81037249      22.29206785        3      -0.00167005      -0.00137889      -0.04615887
Pt       7.01803472       0.81037257      22.29206783        3      -0.00157378      -0.00227982      -0.04514731
Pt       2.80721450       3.24149124      22.29206777        3      -0.00151165      -0.00059910      -0.04328987
Pt       5.61442762       3.24149124      22.29206789        3      -0.00227742      -0.00049523      -0.04460490
Pt       8.42164156       3.24149128      22.29206809        3      -0.00224279      -0.00125887      -0.04248583
Pt       4.21082092       5.67260996      22.29206799        3      -0.00157562      -0.00096012      -0.04887247
Pt       7.01803487       5.67261037      22.29206782        3      -0.00282507      -0.00134420      -0.04563947
Pt       9.82524820       5.67261064      22.29206809        3      -0.00161644      -0.00176914      -0.04354576
Pt      -0.00000052       1.62074570      24.58417379        2       0.00676624       0.00893301       0.04203655
Pt       2.80721442       1.62074548      24.58417394        2       0.00471962       0.00710531       0.04109706
Pt       5.61442780       1.62074537      24.58417373        2       0.00370402       0.00280126       0.04822285
Pt       1.40360637       4.05186438      24.58417386        2       0.00684045       0.00449097       0.03441532
Pt       4.21082089       4.05186400      24.58417379        2       0.00081504      -0.00767482       0.03248863
Pt       7.01803504       4.05186405      24.58417405        2       0.01092636       0.00136693       0.04291681
Pt       2.80721281       6.48298343      24.58417366        2      -0.00665945       0.00456190       0.03288563
Pt       5.61442797       6.48298326      24.58417386        2       0.01027967       0.00596278       0.02690963
Pt       8.42164223       6.48298340      24.58417377        2       0.00886002       0.00200550       0.04045600
Pt       0.00489291       0.00159856      26.91389765        1       0.00940407       0.02259132       0.00615969
Pt       2.81412966       0.00422925      26.91509500        1      -0.01158435      -0.00505089       0.00757733
Pt       5.61859225       0.00564862      26.92160707        1       0.00959544      -0.00380005      -0.02283982
Pt       1.41160737       2.44066643      26.91784385        1      -0.00833532      -0.03357587      -0.01124231
Pt       4.21637040       2.43262331      26.92149622        1       0.00452334       0.00991974      -0.02234158
Pt       7.02553464       2.43523015      26.91798397        1      -0.00521735      -0.00044855      -0.01382121
Pt       2.81687106       4.86860778      26.91915881        1      -0.01678481      -0.01149036      -0.01385327
Pt       5.61803914       4.86457648      26.91412442        1       0.02454302       0.00150150       0.00477766
Pt       8.43364758       4.86617806      26.91787110        1      -0.03337631       0.00370255      -0.01128636
C        4.58283711       5.90333540      31.93938203        0       0.01098211      -0.02071409      -0.01070320
O        5.20369261       6.25970599      32.87883313        0       0.00268154       0.01494430       0.00758425
O        3.96381550       5.54339883      31.00091552        0      -0.01111354       0.00759567       0.00599226
