39
Lattice="8.421641763931781 0.0 0.0 4.2108208819658905 7.293355709136913 0.0 0.0 0.0 46.87624170604845" Properties=species:S:1:pos:R:3:tags:I:1:forces:R:3 charge=0 spin=0 energy=-209.3623819265266 free_energy=-209.3623819265266 stress="0.010582860559225082 6.333342025754973e-05 -1.6898566173040308e-05 6.333342025754973e-05 0.010477722622454166 -1.44552413985366e-05 -1.6898566173040308e-05 -1.44552413985366e-05 -5.0662456487771124e-05" pbc="T T T"
Pt      -0.00000001       0.00000022      19.95723425        4      -0.00334042      -0.00250398       0.01521964
Pt       2.80721397      -0.00000009      19.95723437        4      -0.00311266      -0.00240321       0.01532687
Pt       5.61442779      -0.00000006      19.95723442        4      -0.00309055      -0.00270769       0.01529444
Pt       1.40360720       2.43111836      19.95723428        4      -0.00303726      -0.00251718       0.01535886
Pt       4.21082081       2.43111834      19.95723435        4      -0.00319478      -0.00230984       0.01532752
Pt       7.01803481       2.43111842      19.95723424        4      -0.00356669      -0.00253350       0.01526872
Pt       2.80721405       4.86223723      19.95723396        4      -0.00309934      -0.00263672       0.01504697
Pt       5.61442805       4.86223729      19.95723414        4      -0.00308697      -0.00241489       0.01515920
Pt       8.42164141       4.86223719      19.95723428        4      -0.00295341      -0.00226116       0.01532458
Pt       1.40360726       0.81037260      22.29206791        3      -0.01501949      -0.00874219      -0.04538615
Pt       4.21082130       0.81037249      22.29206785        3      -0.01467310      -0.00834645      -0.04671686
Pt       7.01803472       0.81037257      22.29206783        3      -0.01468209      -0.00923659      -0.04517007
Pt       2.80721450       3.24149124      22.29206777        3      -0.01471792      -0.00786075      -0.04438724
Pt       5.61442762       3.24149124      22.29206789        3      -0.01523871      -0.00776151      -0.04482226
Pt       8.42164156       3.24149128      22.29206809        3      -0.01526982      -0.00834628      -0.04215989
Pt       4.21082092       5.67260996      22.29206799        3      -0.01483235      -0.00832860      -0.04771290
Pt       7.01803487       5.67261037      22.29206782        3      -0.01565644      -0.00828060      -0.04544696
Pt       9.82524820       5.67261064      22.29206809        3      -0.01474688      -0.00881237      -0.04456517
Pt      -0.00000052       1.62074570      24.58417379        2       0.04056012       0.02587242       0.04217997
Pt       2.80721442       1.62074548      24.58417394        2       0.03644704       0.02562667       0.04191984
Pt       5.61442780       1.62074537      24.58417373        2       0.03735488       0.02246382       0.04300826
Pt       1.40360637       4.05186438      24.58417386        2       0.03871591       0.02339239       0.03803475
Pt       4.21082089       4.05186400      24.58417379        2       0.03837370       0.01704327       0.03490714
Pt       7.01803504       4.05186405      24.58417405        2       0.04164559       0.02261167       0.04195991
Pt       2.80721281       6.48298343      24.58417366        2       0.03301707       0.02491708       0.03445600
Pt       5.61442797       6.48298326      24.58417386        2       0.04070351       0.02469971       0.03910650
Pt       8.42164223       6.48298340      24.58417377        2       0.03979482       0.02014500       0.04201213
Pt       0.05205374       0.03118437      26.91844800        1      -0.00453889      -0.00545241      -0.00788289
Pt       2.86184017       0.03205092      26.91777164        1      -0.03133130      -0.01822453      -0.00107110
Pt       5.66711339       0.03201693      26.92063663        1      -0.01654002      -0.01412046      -0.01412021
Pt       1.45742919       2.46588906      26.91938973        1      -0.01826425      -0.03260493      -0.01225404
Pt       4.26409252       2.46142624      26.92074061        1      -0.01868665      -0.00705368      -0.01442091
Pt       7.07151178       2.46241750      26.91879165        1      -0.01797900      -0.01071689      -0.00868804
Pt       2.86417698       4.89575613      26.91910318        1      -0.03229466      -0.01959094      -0.00653698
Pt       5.66727018       4.89194301      26.91869566        1      -0.00793358      -0.00070944      -0.00903539
Pt       8.47822006       4.89240508      26.91933146        1      -0.03622081      -0.00081872      -0.01205438
C        4.67187993       5.93994825      32.14218522        0      -0.02752036      -0.01611827       0.02263715
O        5.08539463       6.18709341      33.22039173        0       0.02941381       0.01733916       0.01978196
O        4.25294595       5.68937546      31.06783732        0      -0.00139809      -0.00069733      -0.04489886
