39
Lattice="8.421641763931781 0.0 0.0 4.2108208819658905 7.293355709136913 0.0 0.0 0.0 46.87624170604845" Properties=species:S:1:pos:R:3:tags:I:1:forces:R:3 charge=0 spin=0 energy=-209.37124919032055 free_energy=-209.37124919032055 stress="0.010509099811315536 8.400728802371304e-06 -9.576580850989558e-06 8.400728802371304e-06 0.010492110624909401 -7.85388419899391e-06 -9.576580850989558e-06 -7.85388419899391e-06 -4.677583638112992e-05" pbc="T T T"
Pt      -0.00000001       0.00000022      19.95723425        4      -0.00069857      -0.00036172       0.01525749
Pt       2.80721397      -0.00000009      19.95723437        4      -0.00037356      -0.00021642       0.01544741
Pt       5.61442779      -0.00000006      19.95723442        4      -0.00042867      -0.00070910       0.01530895
Pt       1.40360720       2.43111836      19.95723428        4      -0.00009218      -0.00045297       0.01555899
Pt       4.21082081       2.43111834      19.95723435        4      -0.00060942      -0.00019263       0.01531402
Pt       7.01803481       2.43111842      19.95723424        4      -0.00101289      -0.00045499       0.01524822
Pt       2.80721405       4.86223723      19.95723396        4      -0.00027575      -0.00048174       0.01504158
Pt       5.61442805       4.86223729      19.95723414        4      -0.00035981      -0.00038214       0.01518836
Pt       8.42164141       4.86223719      19.95723428        4      -0.00023424       0.00012280       0.01545541
Pt       1.40360726       0.81037260      22.29206791        3      -0.00219162      -0.00151460      -0.04550914
Pt       4.21082130       0.81037249      22.29206785        3      -0.00166996      -0.00137885      -0.04616058
Pt       7.01803472       0.81037257      22.29206783        3      -0.00157449      -0.00227987      -0.04514794
Pt       2.80721450       3.24149124      22.29206777        3      -0.00150987      -0.00059958      -0.04328824
Pt       5.61442762       3.24149124      22.29206789        3      -0.00227800      -0.00049513      -0.04460550
Pt       8.42164156       3.24149128      22.29206809        3      -0.00224279      -0.00125904      -0.04248042
Pt       4.21082092       5.67260996      22.29206799        3      -0.00157475      -0.00095917      -0.04887548
Pt       7.01803487       5.67261037      22.29206782        3      -0.00282589      -0.00134333      -0.04564136
Pt       9.82524820       5.67261064      22.29206809        3      -0.00161628      -0.00176779      -0.04354351
Pt      -0.00000052       1.62074570      24.58417379        2       0.00676141       0.00894862       0.04205536
Pt       2.80721442       1.62074548      24.58417394        2       0.00471477       0.00711239       0.04110442
Pt       5.61442780       1.62074537      24.58417373        2       0.00371171       0.00280647       0.04825101
Pt       1.40360637       4.05186438      24.58417386        2       0.00683016       0.00448761       0.03442326
Pt       4.21082089       4.05186400      24.58417379        2       0.00081308      -0.00767788       0.03249746
Pt       7.01803504       4.05186405      24.58417405        2       0.01093794       0.00135512       0.04294316
Pt       2.80721281       6.48298343      24.58417366        2      -0.00666402       0.00455874       0.03288963
Pt       5.61442797       6.48298326      24.58417386        2       0.01028061       0.00596014       0.02692314
Pt       8.42164223       6.48298340      24.58417377        2       0.00886475       0.00199685       0.04046590
Pt       0.00488991       0.00160235      26.91389514        1       0.00942589       0.02256327       0.00616854
Pt       2.81413444       0.00423137      26.91509208        1      -0.01161810      -0.00507105       0.00758043
Pt       5.61859209       0.00564721      26.92161232        1       0.00959983      -0.00379010      -0.02285286
Pt       1.41160763       2.44066899      26.91785031        1      -0.00834560      -0.03359652      -0.01126322
Pt       4.21636884       2.43262173      26.92149952        1       0.00454118       0.00992772      -0.02235585
Pt       7.02553519       2.43522918      26.91799731        1      -0.00522031      -0.00044214      -0.01387827
Pt       2.81686567       4.86860461      26.91915842        1      -0.01674634      -0.01147131      -0.01385422
Pt       5.61804150       4.86456998      26.91412070        1       0.02452962       0.00153558       0.00477539
Pt       8.43364951       4.86617793      26.91787847        1      -0.03339792       0.00369735      -0.01131589
C        4.58283649       5.90334292      31.93937255        0       0.01050670      -0.02101296      -0.01136900
O        5.20368764       6.25970219      32.87882013        0       0.00319193       0.01525061       0.00833085
O        3.96381117       5.54340853      31.00090880        0      -0.01114870       0.00758753       0.00591254
