39
Lattice="8.421641763931781 0.0 0.0 4.2108208819658905 7.293355709136913 0.0 0.0 0.0 46.87624170604845" Properties=species:S:1:pos:R:3:tags:I:1:forces:R:3 charge=0 spin=0 energy=-209.36670970057446 free_energy=-209.36670970057446 stress="0.010483208112418652 1.519769739388721e-05 -3.5489474612404592e-06 1.519769739388721e-05 0.010460001416504383 -4.326234829932218e-06 -3.5489474612404592e-06 -4.326234829932218e-06 -0.00010730371286626905" pbc="T T T"
Pt      -0.00000001       0.00000022      19.95723425        4      -0.00074092      -0.00053619       0.01508015
Pt       2.80721397      -0.00000009      19.95723437        4      -0.00057679      -0.00033860       0.01509445
Pt       5.61442779      -0.00000006      19.95723442        4      -0.00076635      -0.00057203       0.01529088
Pt       1.40360720       2.43111836      19.95723428        4      -0.00100969      -0.00031819       0.01518484
Pt       4.21082081       2.43111834      19.95723435        4      -0.00067578      -0.00063430       0.01533851
Pt       7.01803481       2.43111842      19.95723424        4      -0.00073636      -0.00037883       0.01529879
Pt       2.80721405       4.86223723      19.95723396        4      -0.00081136      -0.00081269       0.01509101
Pt       5.61442805       4.86223729      19.95723414        4      -0.00051490      -0.00034868       0.01507916
Pt       8.42164141       4.86223719      19.95723428        4      -0.00048822      -0.00066270       0.01523094
Pt       1.40360726       0.81037260      22.29206791        3      -0.00336915      -0.00248071      -0.04625275
Pt       4.21082130       0.81037249      22.29206785        3      -0.00312613      -0.00149445      -0.04631294
Pt       7.01803472       0.81037257      22.29206783        3      -0.00311767      -0.00240102      -0.04667087
Pt       2.80721450       3.24149124      22.29206777        3      -0.00278621      -0.00140563      -0.04429941
Pt       5.61442762       3.24149124      22.29206789        3      -0.00343095      -0.00140658      -0.04650841
Pt       8.42164156       3.24149128      22.29206809        3      -0.00396806      -0.00207256      -0.03967251
Pt       4.21082092       5.67260996      22.29206799        3      -0.00298129      -0.00159702      -0.04807969
Pt       7.01803487       5.67261037      22.29206782        3      -0.00435715      -0.00134316      -0.04620456
Pt       9.82524820       5.67261064      22.29206809        3      -0.00317021      -0.00154309      -0.04438765
Pt      -0.00000052       1.62074570      24.58417379        2       0.00988601       0.01450935       0.03105970
Pt       2.80721442       1.62074548      24.58417394        2       0.00840827       0.01216642       0.02884748
Pt       5.61442780       1.62074537      24.58417373        2       0.00691969       0.00336956       0.04339328
Pt       1.40360637       4.05186438      24.58417386        2       0.00569674       0.00363490       0.03582706
Pt       4.21082089       4.05186400      24.58417379        2       0.00720598      -0.00044696       0.03270383
Pt       7.01803504       4.05186405      24.58417405        2       0.01793506       0.00042904       0.03107324
Pt       2.80721281       6.48298343      24.58417366        2       0.00293589       0.00447428       0.03219769
Pt       5.61442797       6.48298326      24.58417386        2       0.00825371       0.00500208       0.02469889
Pt       8.42164223       6.48298340      24.58417377        2       0.01416830       0.00060343       0.02927674
Pt       0.01079487       0.01039816      26.91276320        1       0.00020671      -0.02901665       0.01258972
Pt       2.82097532       0.00798451      26.91236618        1      -0.01841683      -0.01240612       0.01601828
Pt       5.62392909       0.00447993      26.91901721        1       0.00948668       0.00824268      -0.01264625
Pt       1.41640395       2.43867387      26.91804757        1      -0.01213663      -0.00490105      -0.00826255
Pt       4.22031311       2.43663648      26.91917328        1       0.01047377       0.00395565      -0.01307670
Pt       7.02856991       2.43664251      26.91718422        1      -0.00129554      -0.00043972      -0.00658425
Pt       2.81911432       4.86833426      26.91626329        1       0.00489601       0.00444683      -0.00327175
Pt       5.62991886       4.86575861      26.91305444        1      -0.02760803       0.01479597       0.01154827
Pt       8.43507248       4.86903054      26.91824230        1      -0.01053336      -0.00814457      -0.00922158
C        4.78441100       5.99497719      32.43389205        0       0.00094251       0.01220303       0.02462665
O        5.01874338       6.14844021      33.58132950        0       0.00612929      -0.00182762       0.01632328
O        4.54932011       5.84273233      31.28770514        0      -0.00692697      -0.01030416      -0.04542116
