39
Lattice="8.421641763931781 0.0 0.0 4.2108208819658905 7.293355709136913 0.0 0.0 0.0 46.87624170604845" Properties=species:S:1:pos:R:3:tags:I:1:forces:R:3 charge=0 spin=0 energy=-209.36238288020093 free_energy=-209.36238288020093 stress="0.010582851245999336 6.33177041891031e-05 -1.690885801508557e-05 6.33177041891031e-05 0.010477747768163681 -1.4465244021266699e-05 -1.690885801508557e-05 -1.4465244021266699e-05 -5.068835162092e-05" pbc="T T T"
Pt      -0.00000001       0.00000022      19.95723425        4      -0.00334012      -0.00250370       0.01521957
Pt       2.80721397      -0.00000009      19.95723437        4      -0.00311210      -0.00240289       0.01532684
Pt       5.61442779      -0.00000006      19.95723442        4      -0.00309022      -0.00270764       0.01529396
Pt       1.40360720       2.43111836      19.95723428        4      -0.00303713      -0.00251695       0.01535888
Pt       4.21082081       2.43111834      19.95723435        4      -0.00319443      -0.00230932       0.01532799
Pt       7.01803481       2.43111842      19.95723424        4      -0.00356654      -0.00253309       0.01526847
Pt       2.80721405       4.86223723      19.95723396        4      -0.00309902      -0.00263651       0.01504682
Pt       5.61442805       4.86223729      19.95723414        4      -0.00308649      -0.00241447       0.01515927
Pt       8.42164141       4.86223719      19.95723428        4      -0.00295303      -0.00226060       0.01532443
Pt       1.40360726       0.81037260      22.29206791        3      -0.01501767      -0.00874181      -0.04538630
Pt       4.21082130       0.81037249      22.29206785        3      -0.01467144      -0.00834627      -0.04671732
Pt       7.01803472       0.81037257      22.29206783        3      -0.01468055      -0.00923573      -0.04517111
Pt       2.80721450       3.24149124      22.29206777        3      -0.01471636      -0.00786079      -0.04438655
Pt       5.61442762       3.24149124      22.29206789        3      -0.01523675      -0.00776119      -0.04482306
Pt       8.42164156       3.24149128      22.29206809        3      -0.01526851      -0.00834685      -0.04216107
Pt       4.21082092       5.67260996      22.29206799        3      -0.01483009      -0.00832764      -0.04771219
Pt       7.01803487       5.67261037      22.29206782        3      -0.01565455      -0.00827991      -0.04544759
Pt       9.82524820       5.67261064      22.29206809        3      -0.01474610      -0.00881138      -0.04456440
Pt      -0.00000052       1.62074570      24.58417379        2       0.04055543       0.02587336       0.04218922
Pt       2.80721442       1.62074548      24.58417394        2       0.03644197       0.02563119       0.04192005
Pt       5.61442780       1.62074537      24.58417373        2       0.03735128       0.02246157       0.04301925
Pt       1.40360637       4.05186438      24.58417386        2       0.03871430       0.02339259       0.03804153
Pt       4.21082089       4.05186400      24.58417379        2       0.03836896       0.01703913       0.03491610
Pt       7.01803504       4.05186405      24.58417405        2       0.04164273       0.02260858       0.04197039
Pt       2.80721281       6.48298343      24.58417366        2       0.03301152       0.02491468       0.03446455
Pt       5.61442797       6.48298326      24.58417386        2       0.04069603       0.02469513       0.03910552
Pt       8.42164223       6.48298340      24.58417377        2       0.03979489       0.02013802       0.04201312
Pt       0.05204813       0.03118113      26.91844778        1      -0.00454040      -0.00544877      -0.00788183
Pt       2.86183431       0.03204803      26.91776909        1      -0.03132427      -0.01822201      -0.00106770
Pt       5.66710571       0.03201331      26.92063838        1      -0.01652449      -0.01411554      -0.01413122
Pt       1.45742450       2.46588824      26.91939136        1      -0.01827138      -0.03261143      -0.01226218
Pt       4.26408578       2.46142179      26.92074255        1      -0.01867348      -0.00704292      -0.01443109
Pt       7.07150599       2.46241417      26.91879284        1      -0.01797669      -0.01071696      -0.00870019
Pt       2.86417289       4.89575378      26.91910489        1      -0.03229544      -0.01958946      -0.00653953
Pt       5.66726490       4.89193960      26.91869490        1      -0.00793334      -0.00071034      -0.00903460
Pt       8.47821649       4.89240142      26.91933342        1      -0.03622552      -0.00081805      -0.01206369
C        4.67186997       5.93994315      32.14235983        0      -0.02791981      -0.01636123       0.02173318
O        5.08539988       6.18709647      33.22055022        0       0.02964438       0.01748034       0.02032878
O        4.25291160       5.68935636      31.06802035        0      -0.00123579      -0.00060083      -0.04454610
