39
Lattice="8.421641763931781 0.0 0.0 4.2108208819658905 7.293355709136913 0.0 0.0 0.0 46.87624170604845" Properties=species:S:1:pos:R:3:tags:I:1:forces:R:3 charge=0 spin=0 energy=-209.3712520513435 free_energy=-209.3712520513435 stress="0.010509108193218708 8.43319321575109e-06 -9.491118362348061e-06 8.43319321575109e-06 0.010492079891264439 -7.804740562278312e-06 -9.491118362348061e-06 -7.804740562278312e-06 -4.6735014620935544e-05" pbc="T T T"
Pt      -0.00000001       0.00000022      19.95723425        4      -0.00069844      -0.00036197       0.01525734
Pt       2.80721397      -0.00000009      19.95723437        4      -0.00037349      -0.00021666       0.01544722
Pt       5.61442779      -0.00000006      19.95723442        4      -0.00042861      -0.00070895       0.01530874
Pt       1.40360720       2.43111836      19.95723428        4      -0.00009182      -0.00045308       0.01555897
Pt       4.21082081       2.43111834      19.95723435        4      -0.00060928      -0.00019264       0.01531376
Pt       7.01803481       2.43111842      19.95723424        4      -0.00101322      -0.00045527       0.01524816
Pt       2.80721405       4.86223723      19.95723396        4      -0.00027542      -0.00048153       0.01504177
Pt       5.61442805       4.86223729      19.95723414        4      -0.00036028      -0.00038201       0.01518817
Pt       8.42164141       4.86223719      19.95723428        4      -0.00023433       0.00012304       0.01545556
Pt       1.40360726       0.81037260      22.29206791        3      -0.00219212      -0.00151426      -0.04550837
Pt       4.21082130       0.81037249      22.29206785        3      -0.00167006      -0.00137924      -0.04615927
Pt       7.01803472       0.81037257      22.29206783        3      -0.00157413      -0.00227982      -0.04514650
Pt       2.80721450       3.24149124      22.29206777        3      -0.00151085      -0.00059968      -0.04329010
Pt       5.61442762       3.24149124      22.29206789        3      -0.00227743      -0.00049498      -0.04460507
Pt       8.42164156       3.24149128      22.29206809        3      -0.00224242      -0.00125906      -0.04248479
Pt       4.21082092       5.67260996      22.29206799        3      -0.00157526      -0.00095993      -0.04887205
Pt       7.01803487       5.67261037      22.29206782        3      -0.00282493      -0.00134433      -0.04564001
Pt       9.82524820       5.67261064      22.29206809        3      -0.00161616      -0.00176968      -0.04354503
Pt      -0.00000052       1.62074570      24.58417379        2       0.00676157       0.00893584       0.04203643
Pt       2.80721442       1.62074548      24.58417394        2       0.00472064       0.00710374       0.04109258
Pt       5.61442780       1.62074537      24.58417373        2       0.00370593       0.00280303       0.04822939
Pt       1.40360637       4.05186438      24.58417386        2       0.00683865       0.00449322       0.03440982
Pt       4.21082089       4.05186400      24.58417379        2       0.00081739      -0.00767176       0.03249388
Pt       7.01803504       4.05186405      24.58417405        2       0.01092596       0.00136420       0.04292270
Pt       2.80721281       6.48298343      24.58417366        2      -0.00665702       0.00456072       0.03288439
Pt       5.61442797       6.48298326      24.58417386        2       0.01027748       0.00596001       0.02692294
Pt       8.42164223       6.48298340      24.58417377        2       0.00885921       0.00200649       0.04045508
Pt       0.00489043       0.00160211      26.91389773        1       0.00941992       0.02256700       0.00615719
Pt       2.81413027       0.00422988      26.91509420        1      -0.01159390      -0.00505707       0.00757305
Pt       5.61859338       0.00564669      26.92160854        1       0.00958989      -0.00378631      -0.02283808
Pt       1.41160779       2.44066735      26.91784358        1      -0.00834031      -0.03358203      -0.01123169
Pt       4.21636933       2.43262312      26.92149553        1       0.00453469       0.00992169      -0.02234135
Pt       7.02553428       2.43523075      26.91798701        1      -0.00522053      -0.00044822      -0.01383582
Pt       2.81686919       4.86860729      26.91915866        1      -0.01676581      -0.01148475      -0.01385378
Pt       5.61804081       4.86457397      26.91412549        1       0.02452822       0.00152127       0.00476428
Pt       8.43364760       4.86617903      26.91787201        1      -0.03338364       0.00369860      -0.01128443
C        4.58284609       5.90332844      31.93936492        0       0.01062949      -0.02088856      -0.01112716
O        5.20368881       6.25970631      32.87881291        0       0.00299876       0.01511294       0.00801113
O        3.96382585       5.54338205      31.00089959        0      -0.01107830       0.00760000       0.00599112
