39
Lattice="8.421641763931781 0.0 0.0 4.2108208819658905 7.293355709136913 0.0 0.0 0.0 46.87624170604845" Properties=species:S:1:pos:R:3:tags:I:1:forces:R:3 charge=0 spin=0 energy=-209.36390875910718 free_energy=-209.36390875910718 stress="0.010572659783065319 5.172436067368835e-05 -1.0515517487874604e-06 5.172436067368835e-05 0.01049378328025341 -4.118472588743316e-06 -1.0515517487874604e-06 -4.118472588743316e-06 -2.0870564185315743e-05" pbc="T T T"
Pt      -0.00000001       0.00000022      19.95723425        4      -0.00225984      -0.00201660       0.01511391
Pt       2.80721397      -0.00000009      19.95723437        4      -0.00262302      -0.00189681       0.01531726
Pt       5.61442779      -0.00000006      19.95723442        4      -0.00221319      -0.00160452       0.01541086
Pt       1.40360720       2.43111836      19.95723428        4      -0.00248474      -0.00195580       0.01511891
Pt       4.21082081       2.43111834      19.95723435        4      -0.00209868      -0.00185423       0.01546673
Pt       7.01803481       2.43111842      19.95723424        4      -0.00239830      -0.00177758       0.01578562
Pt       2.80721405       4.86223723      19.95723396        4      -0.00201056      -0.00172386       0.01537523
Pt       5.61442805       4.86223729      19.95723414        4      -0.00232542      -0.00146124       0.01504841
Pt       8.42164141       4.86223719      19.95723428        4      -0.00235907      -0.00173256       0.01513488
Pt       1.40360726       0.81037260      22.29206791        3      -0.01097157      -0.00611044      -0.04553505
Pt       4.21082130       0.81037249      22.29206785        3      -0.01154682      -0.00617345      -0.04667386
Pt       7.01803472       0.81037257      22.29206783        3      -0.01107804      -0.00620138      -0.04448267
Pt       2.80721450       3.24149124      22.29206777        3      -0.01105093      -0.00549448      -0.04610379
Pt       5.61442762       3.24149124      22.29206789        3      -0.01088171      -0.00579061      -0.04472801
Pt       8.42164156       3.24149128      22.29206809        3      -0.01092982      -0.00586965      -0.04230740
Pt       4.21082092       5.67260996      22.29206799        3      -0.01118209      -0.00610428      -0.04445257
Pt       7.01803487       5.67261037      22.29206782        3      -0.01142711      -0.00564971      -0.04576156
Pt       9.82524820       5.67261064      22.29206809        3      -0.01119365      -0.00637144      -0.04616679
Pt      -0.00000052       1.62074570      24.58417379        2       0.02157566       0.01647388       0.05012142
Pt       2.80721442       1.62074548      24.58417394        2       0.02973164       0.01178301       0.03800180
Pt       5.61442780       1.62074537      24.58417373        2       0.03710346       0.02142261       0.04423045
Pt       1.40360637       4.05186438      24.58417386        2       0.02946256       0.01718389       0.04345912
Pt       4.21082089       4.05186400      24.58417379        2       0.03097874       0.02177036       0.03836520
Pt       7.01803504       4.05186405      24.58417405        2       0.02497744       0.00972651       0.04953451
Pt       2.80721281       6.48298343      24.58417366        2       0.03440984       0.01557638       0.03749410
Pt       5.61442797       6.48298326      24.58417386        2       0.02737938       0.01604611       0.04716294
Pt       8.42164223       6.48298340      24.58417377        2       0.02577744       0.01959047       0.03830818
Pt       0.04033697       0.02315210      26.92229302        1      -0.01648284      -0.01197618      -0.02611975
Pt       2.84659421       0.02167315      26.92105406        1      -0.01339192      -0.00624653      -0.01515942
Pt       5.65613988       0.02169917      26.91523880        1      -0.02473319       0.00003325       0.00430953
Pt       1.44338509       2.45137739      26.91666493        1      -0.01621459       0.00498910      -0.00179317
Pt       4.25046894       2.45535882      26.91512327        1      -0.01070882      -0.01988132       0.00442352
Pt       7.05964493       2.45488635      26.92464790        1      -0.02459816      -0.01499287      -0.03822324
Pt       2.84737915       4.88552855      26.92006503        1      -0.01504771      -0.01052406      -0.01430516
Pt       5.65429627       4.88464931      26.92236364        1      -0.01705733      -0.00714528      -0.02680417
Pt       8.45923549       4.88568060      26.91663660        1      -0.00256055      -0.01419544      -0.00160031
C        4.88455376       6.05769810      32.21761765        0       0.01349223       0.01033316      -0.04627042
O        4.92869318       6.08954086      33.39711134        0      -0.00540887      -0.00425757       0.04654398
O        4.84260148       6.02752010      31.03828960        0      -0.00764991      -0.00592094      -0.00323935
