39
Lattice="8.421641763931781 0.0 0.0 4.2108208819658905 7.293355709136913 0.0 0.0 0.0 46.87624170604845" Properties=species:S:1:pos:R:3:tags:I:1:forces:R:3 charge=0 spin=0 energy=-209.36455058192212 free_energy=-209.36455058192212 stress="0.010537533089518547 5.03359260619618e-05 5.096069344290299e-07 5.03359260619618e-05 0.01046106219291687 -2.8815618406952126e-06 5.096069344290299e-07 -2.8815618406952126e-06 -6.575902079930529e-05" pbc="T T T"
Pt      -0.00000001       0.00000022      19.95723425        4      -0.00222625      -0.00191269       0.01511024
Pt       2.80721397      -0.00000009      19.95723437        4      -0.00245287      -0.00176588       0.01534440
Pt       5.61442779      -0.00000006      19.95723442        4      -0.00207978      -0.00171985       0.01539818
Pt       1.40360720       2.43111836      19.95723428        4      -0.00217533      -0.00192079       0.01515420
Pt       4.21082081       2.43111834      19.95723435        4      -0.00212617      -0.00171834       0.01546476
Pt       7.01803481       2.43111842      19.95723424        4      -0.00237378      -0.00174366       0.01571317
Pt       2.80721405       4.86223723      19.95723396        4      -0.00188202      -0.00164469       0.01531658
Pt       5.61442805       4.86223729      19.95723414        4      -0.00225996      -0.00144690       0.01505322
Pt       8.42164141       4.86223719      19.95723428        4      -0.00223723      -0.00142991       0.01516058
Pt       1.40360726       0.81037260      22.29206791        3      -0.01090064      -0.00583456      -0.04466757
Pt       4.21082130       0.81037249      22.29206785        3      -0.01083434      -0.00576686      -0.04570817
Pt       7.01803472       0.81037257      22.29206783        3      -0.01042168      -0.00581048      -0.04492928
Pt       2.80721450       3.24149124      22.29206777        3      -0.01055598      -0.00493566      -0.04523483
Pt       5.61442762       3.24149124      22.29206789        3      -0.01030142      -0.00549060      -0.04515439
Pt       8.42164156       3.24149128      22.29206809        3      -0.01064224      -0.00574284      -0.04331528
Pt       4.21082092       5.67260996      22.29206799        3      -0.01071112      -0.00591827      -0.04515146
Pt       7.01803487       5.67261037      22.29206782        3      -0.01099941      -0.00573593      -0.04489974
Pt       9.82524820       5.67261064      22.29206809        3      -0.01044804      -0.00612593      -0.04527336
Pt      -0.00000052       1.62074570      24.58417379        2       0.02601219       0.01263858       0.03603739
Pt       2.80721442       1.62074548      24.58417394        2       0.02928784       0.00991791       0.03610412
Pt       5.61442780       1.62074537      24.58417373        2       0.03066034       0.01753405       0.03020084
Pt       1.40360637       4.05186438      24.58417386        2       0.03108241       0.01824136       0.03496927
Pt       4.21082089       4.05186400      24.58417379        2       0.02722508       0.01912409       0.03282459
Pt       7.01803504       4.05186405      24.58417405        2       0.02394552       0.01541465       0.03563919
Pt       2.80721281       6.48298343      24.58417366        2       0.03011326       0.01344653       0.03228663
Pt       5.61442797       6.48298326      24.58417386        2       0.02963744       0.01737268       0.03857500
Pt       8.42164223       6.48298340      24.58417377        2       0.02369334       0.02031596       0.03619131
Pt       0.03809777       0.02045507      26.92000292        1      -0.01219138      -0.00234331      -0.01684787
Pt       2.84456277       0.02067130      26.92121252        1      -0.01197443      -0.00593686      -0.01689103
Pt       5.65395968       0.02177537      26.91483880        1      -0.02556407      -0.00981507       0.00709163
Pt       1.44124677       2.45170352      26.91480911        1      -0.01046061      -0.00411027       0.00545068
Pt       4.24966425       2.45357854      26.91470997        1      -0.02088340      -0.01634431       0.00735740
Pt       7.05716956       2.45339375      26.91764820        1      -0.02045667      -0.01227161      -0.00712123
Pt       2.84615744       4.88466924      26.91999850        1      -0.02014320      -0.01267426      -0.01311682
Pt       5.65100078       4.88415203      26.92006501        1      -0.00704912      -0.00857033      -0.01741562
Pt       8.45852225       4.88390244      26.91478552        1      -0.00799285      -0.00560430       0.00569360
C        4.88400061       6.05725186      32.18235187        0       0.03351792       0.02553906      -0.01925929
O        4.92901607       6.08978807      33.36212638        0      -0.01599048      -0.01227590       0.01366103
O        4.84414845       6.02864551      31.00283504        0      -0.01684103      -0.01293461       0.00518786
