39
Lattice="8.421641763931781 0.0 0.0 4.2108208819658905 7.293355709136913 0.0 0.0 0.0 46.87624170604845" Properties=species:S:1:pos:R:3:tags:I:1:forces:R:3 charge=0 spin=0 energy=-209.36390780543286 free_energy=-209.36390780543286 stress="0.010572634637355804 5.172391320229508e-05 -1.0621678256939049e-06 5.172391320229508e-05 0.010493750683963299 -4.127357897232287e-06 -1.0621678256939049e-06 -4.127357897232287e-06 -2.08997826121049e-05" pbc="T T T"
Pt      -0.00000001       0.00000022      19.95723425        4      -0.00225981      -0.00201650       0.01511393
Pt       2.80721397      -0.00000009      19.95723437        4      -0.00262281      -0.00189690       0.01531726
Pt       5.61442779      -0.00000006      19.95723442        4      -0.00221318      -0.00160427       0.01541067
Pt       1.40360720       2.43111836      19.95723428        4      -0.00248470      -0.00195591       0.01511879
Pt       4.21082081       2.43111834      19.95723435        4      -0.00209861      -0.00185427       0.01546641
Pt       7.01803481       2.43111842      19.95723424        4      -0.00239857      -0.00177743       0.01578547
Pt       2.80721405       4.86223723      19.95723396        4      -0.00201047      -0.00172369       0.01537523
Pt       5.61442805       4.86223729      19.95723414        4      -0.00232530      -0.00146125       0.01504833
Pt       8.42164141       4.86223719      19.95723428        4      -0.00235898      -0.00173225       0.01513488
Pt       1.40360726       0.81037260      22.29206791        3      -0.01097203      -0.00611029      -0.04553382
Pt       4.21082130       0.81037249      22.29206785        3      -0.01154614      -0.00617305      -0.04667313
Pt       7.01803472       0.81037257      22.29206783        3      -0.01107740      -0.00620133      -0.04448385
Pt       2.80721450       3.24149124      22.29206777        3      -0.01105083      -0.00549466      -0.04610298
Pt       5.61442762       3.24149124      22.29206789        3      -0.01088063      -0.00579072      -0.04472880
Pt       8.42164156       3.24149128      22.29206809        3      -0.01092963      -0.00586984      -0.04230944
Pt       4.21082092       5.67260996      22.29206799        3      -0.01118157      -0.00610414      -0.04445240
Pt       7.01803487       5.67261037      22.29206782        3      -0.01142698      -0.00564986      -0.04576068
Pt       9.82524820       5.67261064      22.29206809        3      -0.01119378      -0.00637221      -0.04616659
Pt      -0.00000052       1.62074570      24.58417379        2       0.02157963       0.01646847       0.05011207
Pt       2.80721442       1.62074548      24.58417394        2       0.02973346       0.01178187       0.03799988
Pt       5.61442780       1.62074537      24.58417373        2       0.03709760       0.02142170       0.04421945
Pt       1.40360637       4.05186438      24.58417386        2       0.02946820       0.01718529       0.04345105
Pt       4.21082089       4.05186400      24.58417379        2       0.03097587       0.02177021       0.03836557
Pt       7.01803504       4.05186405      24.58417405        2       0.02497290       0.00973180       0.04952542
Pt       2.80721281       6.48298343      24.58417366        2       0.03440988       0.01557331       0.03749129
Pt       5.61442797       6.48298326      24.58417386        2       0.02737905       0.01604693       0.04715868
Pt       8.42164223       6.48298340      24.58417377        2       0.02577546       0.01959348       0.03829965
Pt       0.04033606       0.02314996      26.92229241        1      -0.01648059      -0.01196607      -0.02611823
Pt       2.84659281       0.02167267      26.92105550        1      -0.01339857      -0.00624795      -0.01514489
Pt       5.65613864       0.02169934      26.91523811        1      -0.02473239       0.00002915       0.00431844
Pt       1.44338435       2.45137766      26.91666268        1      -0.01621081       0.00498477      -0.00178522
Pt       4.25046866       2.45535842      26.91512283        1      -0.01071597      -0.01988078       0.00442380
Pt       7.05964395       2.45488557      26.92464244        1      -0.02459857      -0.01498976      -0.03819911
Pt       2.84737887       4.88552838      26.92006592        1      -0.01505282      -0.01052796      -0.01431521
Pt       5.65429372       4.88464999      26.92236286        1      -0.01704569      -0.00715190      -0.02680368
Pt       8.45923513       4.88568013      26.91663420        1      -0.00256606      -0.01419343      -0.00158324
C        4.88455375       6.05769737      32.21760991        0       0.01351519       0.01034792      -0.04626682
O        4.92869474       6.08954082      33.39710278        0      -0.00541714      -0.00426295       0.04653651
O        4.84260254       6.02752014      31.03828177        0      -0.00765739      -0.00592550      -0.00324469
