39
Lattice="8.421641763931781 0.0 0.0 4.2108208819658905 7.293355709136913 0.0 0.0 0.0 46.87624170604845" Properties=species:S:1:pos:R:3:tags:I:1:forces:R:3 charge=0 spin=0 energy=-209.37124919032055 free_energy=-209.37124919032055 stress="0.010509148240089417 8.463374797429424e-06 -9.420528840564657e-06 8.463374797429424e-06 0.010492083616554737 -7.763763278489932e-06 -9.420528840564657e-06 -7.763763278489932e-06 -4.6626373659819365e-05" pbc="T T T"
Pt      -0.00000001       0.00000022      19.95723425        4      -0.00069823      -0.00036190       0.01525723
Pt       2.80721397      -0.00000009      19.95723437        4      -0.00037384      -0.00021678       0.01544707
Pt       5.61442779      -0.00000006      19.95723442        4      -0.00042867      -0.00070923       0.01530893
Pt       1.40360720       2.43111836      19.95723428        4      -0.00009143      -0.00045351       0.01555927
Pt       4.21082081       2.43111834      19.95723435        4      -0.00060942      -0.00019242       0.01531395
Pt       7.01803481       2.43111842      19.95723424        4      -0.00101368      -0.00045545       0.01524794
Pt       2.80721405       4.86223723      19.95723396        4      -0.00027511      -0.00048125       0.01504190
Pt       5.61442805       4.86223729      19.95723414        4      -0.00036031      -0.00038174       0.01518819
Pt       8.42164141       4.86223719      19.95723428        4      -0.00023487       0.00012356       0.01545534
Pt       1.40360726       0.81037260      22.29206791        3      -0.00219291      -0.00151321      -0.04550575
Pt       4.21082130       0.81037249      22.29206785        3      -0.00167017      -0.00137888      -0.04615733
Pt       7.01803472       0.81037257      22.29206783        3      -0.00157380      -0.00227919      -0.04514764
Pt       2.80721450       3.24149124      22.29206777        3      -0.00151232      -0.00059898      -0.04328949
Pt       5.61442762       3.24149124      22.29206789        3      -0.00227738      -0.00049496      -0.04460509
Pt       8.42164156       3.24149128      22.29206809        3      -0.00224304      -0.00125904      -0.04249099
Pt       4.21082092       5.67260996      22.29206799        3      -0.00157567      -0.00095989      -0.04887113
Pt       7.01803487       5.67261037      22.29206782        3      -0.00282466      -0.00134517      -0.04563973
Pt       9.82524820       5.67261064      22.29206809        3      -0.00161628      -0.00176977      -0.04354498
Pt      -0.00000052       1.62074570      24.58417379        2       0.00676938       0.00892434       0.04202805
Pt       2.80721442       1.62074548      24.58417394        2       0.00472402       0.00709928       0.04109566
Pt       5.61442780       1.62074537      24.58417373        2       0.00369821       0.00279597       0.04822227
Pt       1.40360637       4.05186438      24.58417386        2       0.00685035       0.00449668       0.03441561
Pt       4.21082089       4.05186400      24.58417379        2       0.00081620      -0.00767345       0.03249564
Pt       7.01803504       4.05186405      24.58417405        2       0.01091920       0.00137402       0.04291305
Pt       2.80721281       6.48298343      24.58417366        2      -0.00666025       0.00456007       0.03288932
Pt       5.61442797       6.48298326      24.58417386        2       0.01027923       0.00596050       0.02691303
Pt       8.42164223       6.48298340      24.58417377        2       0.00885936       0.00201261       0.04045961
Pt       0.00489265       0.00159658      26.91389976        1       0.00940413       0.02260218       0.00615740
Pt       2.81412645       0.00422688      26.91509563        1      -0.01156427      -0.00504235       0.00757010
Pt       5.61859376       0.00564711      26.92160902        1       0.00958618      -0.00379384      -0.02284977
Pt       1.41160805       2.44066627      26.91784069        1      -0.00833234      -0.03357324      -0.01122802
Pt       4.21636975       2.43262202      26.92149456        1       0.00453095       0.00992040      -0.02234235
Pt       7.02553571       2.43523058      26.91797776        1      -0.00522610      -0.00045067      -0.01379981
Pt       2.81687624       4.86861007      26.91916204        1      -0.01681032      -0.01150545      -0.01386714
Pt       5.61803806       4.86457712      26.91412728        1       0.02455201       0.00148990       0.00476407
Pt       8.43364818       4.86617824      26.91786700        1      -0.03337564       0.00370417      -0.01127401
C        4.58282982       5.90333511      31.93942765        0       0.01101734      -0.02065039      -0.01063972
O        5.20369521       6.25970835      32.87887217        0       0.00269261       0.01492901       0.00759413
O        3.96379688       5.54340183      31.00096822        0      -0.01115854       0.00754767       0.00591525
