39
Lattice="8.421641763931781 0.0 0.0 4.2108208819658905 7.293355709136913 0.0 0.0 0.0 46.87624170604845" Properties=species:S:1:pos:R:3:tags:I:1:forces:R:3 charge=0 spin=0 energy=-209.3712463292976 free_energy=-209.3712463292976 stress="0.010509208776056767 8.472882655041758e-06 -9.386099918629043e-06 8.472882655041758e-06 0.010492137633264065 -7.742034540569875e-06 -9.386099918629043e-06 -7.742034540569875e-06 -4.652787174563855e-05" pbc="T T T"
Pt      -0.00000001       0.00000022      19.95723425        4      -0.00069859      -0.00036192       0.01525746
Pt       2.80721397      -0.00000009      19.95723437        4      -0.00037359      -0.00021654       0.01544735
Pt       5.61442779      -0.00000006      19.95723442        4      -0.00042856      -0.00070904       0.01530895
Pt       1.40360720       2.43111836      19.95723428        4      -0.00009207      -0.00045323       0.01555899
Pt       4.21082081       2.43111834      19.95723435        4      -0.00060941      -0.00019264       0.01531391
Pt       7.01803481       2.43111842      19.95723424        4      -0.00101293      -0.00045503       0.01524803
Pt       2.80721405       4.86223723      19.95723396        4      -0.00027563      -0.00048176       0.01504158
Pt       5.61442805       4.86223729      19.95723414        4      -0.00035993      -0.00038224       0.01518849
Pt       8.42164141       4.86223719      19.95723428        4      -0.00023437       0.00012309       0.01545532
Pt       1.40360726       0.81037260      22.29206791        3      -0.00219167      -0.00151481      -0.04550904
Pt       4.21082130       0.81037249      22.29206785        3      -0.00166997      -0.00137906      -0.04616083
Pt       7.01803472       0.81037257      22.29206783        3      -0.00157442      -0.00228033      -0.04514771
Pt       2.80721450       3.24149124      22.29206777        3      -0.00150962      -0.00059967      -0.04328849
Pt       5.61442762       3.24149124      22.29206789        3      -0.00227793      -0.00049520      -0.04460555
Pt       8.42164156       3.24149128      22.29206809        3      -0.00224265      -0.00125922      -0.04248095
Pt       4.21082092       5.67260996      22.29206799        3      -0.00157488      -0.00095957      -0.04887482
Pt       7.01803487       5.67261037      22.29206782        3      -0.00282570      -0.00134321      -0.04564157
Pt       9.82524820       5.67261064      22.29206809        3      -0.00161590      -0.00176812      -0.04354347
Pt      -0.00000052       1.62074570      24.58417379        2       0.00675980       0.00894815       0.04205599
Pt       2.80721442       1.62074548      24.58417394        2       0.00471481       0.00711569       0.04110228
Pt       5.61442780       1.62074537      24.58417373        2       0.00371267       0.00280726       0.04825013
Pt       1.40360637       4.05186438      24.58417386        2       0.00683011       0.00448605       0.03441593
Pt       4.21082089       4.05186400      24.58417379        2       0.00081426      -0.00767861       0.03249479
Pt       7.01803504       4.05186405      24.58417405        2       0.01093460       0.00135497       0.04294309
Pt       2.80721281       6.48298343      24.58417366        2      -0.00666448       0.00456193       0.03288506
Pt       5.61442797       6.48298326      24.58417386        2       0.01028093       0.00596154       0.02691415
Pt       8.42164223       6.48298340      24.58417377        2       0.00886656       0.00199808       0.04046174
Pt       0.00489090       0.00160120      26.91389454        1       0.00941810       0.02257678       0.00617051
Pt       2.81413498       0.00423290      26.91509117        1      -0.01161599      -0.00507001       0.00758505
Pt       5.61859338       0.00564819      26.92161183        1       0.00959508      -0.00378945      -0.02285320
Pt       1.41160688       2.44066963      26.91785102        1      -0.00834133      -0.03359794      -0.01126191
Pt       4.21636971       2.43262290      26.92149956        1       0.00453764       0.00992795      -0.02235604
Pt       7.02553453       2.43522979      26.91799687        1      -0.00521904      -0.00044124      -0.01387893
Pt       2.81686446       4.86860495      26.91915618        1      -0.01674178      -0.01147267      -0.01384424
Pt       5.61803981       4.86457428      26.91412096        1       0.02454086       0.00151462       0.00477598
Pt       8.43364911       4.86617808      26.91787797        1      -0.03340263       0.00370112      -0.01130807
C        4.58284265       5.90332924      31.93935480        0       0.01099479      -0.02075029      -0.01070198
O        5.20369180       6.25970662      32.87880521        0       0.00265949       0.01495337       0.00756444
O        3.96383015       5.54338071      31.00088579        0      -0.01110650       0.00762101       0.00601767
