39
Lattice="8.421641763931781 0.0 0.0 4.2108208819658905 7.293355709136913 0.0 0.0 0.0 46.87624170604845" Properties=species:S:1:pos:R:3:tags:I:1:forces:R:3 charge=0 spin=0 energy=-209.36390303706128 free_energy=-209.36390303706128 stress="0.010572578758001328 5.1728558901231736e-05 -1.0562650913925609e-06 5.1728558901231736e-05 0.010493697598576546 -4.12449708164786e-06 -1.0562650913925609e-06 -4.12449708164786e-06 -2.089628833346069e-05" pbc="T T T"
Pt      -0.00000001       0.00000022      19.95723425        4      -0.00225964      -0.00201665       0.01511387
Pt       2.80721397      -0.00000009      19.95723437        4      -0.00262308      -0.00189704       0.01531713
Pt       5.61442779      -0.00000006      19.95723442        4      -0.00221326      -0.00160427       0.01541062
Pt       1.40360720       2.43111836      19.95723428        4      -0.00248434      -0.00195581       0.01511887
Pt       4.21082081       2.43111834      19.95723435        4      -0.00209868      -0.00185441       0.01546643
Pt       7.01803481       2.43111842      19.95723424        4      -0.00239849      -0.00177757       0.01578541
Pt       2.80721405       4.86223723      19.95723396        4      -0.00201048      -0.00172365       0.01537517
Pt       5.61442805       4.86223729      19.95723414        4      -0.00232542      -0.00146105       0.01504811
Pt       8.42164141       4.86223719      19.95723428        4      -0.00235920      -0.00173205       0.01513473
Pt       1.40360726       0.81037260      22.29206791        3      -0.01097265      -0.00611003      -0.04553195
Pt       4.21082130       0.81037249      22.29206785        3      -0.01154527      -0.00617269      -0.04667089
Pt       7.01803472       0.81037257      22.29206783        3      -0.01107738      -0.00620091      -0.04448459
Pt       2.80721450       3.24149124      22.29206777        3      -0.01105141      -0.00549415      -0.04610251
Pt       5.61442762       3.24149124      22.29206789        3      -0.01088087      -0.00579065      -0.04472912
Pt       8.42164156       3.24149128      22.29206809        3      -0.01092984      -0.00586993      -0.04231185
Pt       4.21082092       5.67260996      22.29206799        3      -0.01118194      -0.00610432      -0.04445234
Pt       7.01803487       5.67261037      22.29206782        3      -0.01142695      -0.00565123      -0.04576007
Pt       9.82524820       5.67261064      22.29206809        3      -0.01119336      -0.00637223      -0.04616623
Pt      -0.00000052       1.62074570      24.58417379        2       0.02158572       0.01646550       0.05009148
Pt       2.80721442       1.62074548      24.58417394        2       0.02973695       0.01177790       0.03798682
Pt       5.61442780       1.62074537      24.58417373        2       0.03709155       0.02141580       0.04420797
Pt       1.40360637       4.05186438      24.58417386        2       0.02947058       0.01718737       0.04344114
Pt       4.21082089       4.05186400      24.58417379        2       0.03097300       0.02176920       0.03835453
Pt       7.01803504       4.05186405      24.58417405        2       0.02497340       0.00973850       0.04950332
Pt       2.80721281       6.48298343      24.58417366        2       0.03440699       0.01557165       0.03748247
Pt       5.61442797       6.48298326      24.58417386        2       0.02738362       0.01604960       0.04714180
Pt       8.42164223       6.48298340      24.58417377        2       0.02577507       0.01959938       0.03828925
Pt       0.04033659       0.02314784      26.92228937        1      -0.01648358      -0.01195476      -0.02609721
Pt       2.84659313       0.02167283      26.92105492        1      -0.01339721      -0.00624723      -0.01513883
Pt       5.65613909       0.02169800      26.91523673        1      -0.02473380       0.00003777       0.00431933
Pt       1.44338671       2.45137703      26.91665871        1      -0.01622300       0.00498926      -0.00176815
Pt       4.25046783       2.45535882      26.91512074        1      -0.01070745      -0.01988501       0.00443249
Pt       7.05964419       2.45488568      26.92463363        1      -0.02460052      -0.01499216      -0.03816440
Pt       2.84737959       4.88552854      26.92006679        1      -0.01505669      -0.01052781      -0.01430910
Pt       5.65429239       4.88465144      26.92236001        1      -0.01703987      -0.00716013      -0.02678364
Pt       8.45923567       4.88568262      26.91663038        1      -0.00256255      -0.01420578      -0.00156673
C        4.88455178       6.05769607      32.21768370        0       0.01353686       0.01036782      -0.04578398
O        4.92869467       6.08954146      33.39717727        0      -0.00543252      -0.00427594       0.04618418
O        4.84259972       6.02751849      31.03835684        0      -0.00766426      -0.00593215      -0.00338354
