39
Lattice="8.421641763931781 0.0 0.0 4.2108208819658905 7.293355709136913 0.0 0.0 0.0 46.87624170604845" Properties=species:S:1:pos:R:3:tags:I:1:forces:R:3 charge=0 spin=0 energy=-209.36454772089917 free_energy=-209.36454772089917 stress="0.010537486523389816 5.034249625168741e-05 5.105642912894837e-07 5.034249625168741e-05 0.010461007244884968 -2.879706016756245e-06 5.105642912894837e-07 -2.879706016756245e-06 -6.590457633137703e-05" pbc="T T T"
Pt      -0.00000001       0.00000022      19.95723425        4      -0.00222612      -0.00191302       0.01511018
Pt       2.80721397      -0.00000009      19.95723437        4      -0.00245308      -0.00176598       0.01534413
Pt       5.61442779      -0.00000006      19.95723442        4      -0.00208052      -0.00171975       0.01539824
Pt       1.40360720       2.43111836      19.95723428        4      -0.00217560      -0.00192098       0.01515377
Pt       4.21082081       2.43111834      19.95723435        4      -0.00212640      -0.00171924       0.01546463
Pt       7.01803481       2.43111842      19.95723424        4      -0.00237397      -0.00174379       0.01571321
Pt       2.80721405       4.86223723      19.95723396        4      -0.00188222      -0.00164487       0.01531635
Pt       5.61442805       4.86223729      19.95723414        4      -0.00226033      -0.00144674       0.01505301
Pt       8.42164141       4.86223719      19.95723428        4      -0.00223749      -0.00143015       0.01516041
Pt       1.40360726       0.81037260      22.29206791        3      -0.01090195      -0.00583486      -0.04466735
Pt       4.21082130       0.81037249      22.29206785        3      -0.01083492      -0.00576724      -0.04570547
Pt       7.01803472       0.81037257      22.29206783        3      -0.01042287      -0.00581112      -0.04493152
Pt       2.80721450       3.24149124      22.29206777        3      -0.01055681      -0.00493598      -0.04523573
Pt       5.61442762       3.24149124      22.29206789        3      -0.01030172      -0.00549106      -0.04515641
Pt       8.42164156       3.24149128      22.29206809        3      -0.01064313      -0.00574334      -0.04331475
Pt       4.21082092       5.67260996      22.29206799        3      -0.01071237      -0.00591876      -0.04515136
Pt       7.01803487       5.67261037      22.29206782        3      -0.01100014      -0.00573646      -0.04489946
Pt       9.82524820       5.67261064      22.29206809        3      -0.01044853      -0.00612600      -0.04527421
Pt      -0.00000052       1.62074570      24.58417379        2       0.02601193       0.01264826       0.03602904
Pt       2.80721442       1.62074548      24.58417394        2       0.02929538       0.00991969       0.03608050
Pt       5.61442780       1.62074537      24.58417373        2       0.03066155       0.01753636       0.03021341
Pt       1.40360637       4.05186438      24.58417386        2       0.03107994       0.01823941       0.03496575
Pt       4.21082089       4.05186400      24.58417379        2       0.02722588       0.01912319       0.03281202
Pt       7.01803504       4.05186405      24.58417405        2       0.02395340       0.01540945       0.03563084
Pt       2.80721281       6.48298343      24.58417366        2       0.03011617       0.01344759       0.03227281
Pt       5.61442797       6.48298326      24.58417386        2       0.02964028       0.01737490       0.03854955
Pt       8.42164223       6.48298340      24.58417377        2       0.02369678       0.02032055       0.03616650
Pt       0.03810253       0.02045803      26.91999658        1      -0.01221129      -0.00234792      -0.01681736
Pt       2.84456617       0.02067325      26.92120866        1      -0.01197134      -0.00593432      -0.01686418
Pt       5.65396205       0.02177145      26.91483716        1      -0.02555479      -0.00976880       0.00709949
Pt       1.44125594       2.45170110      26.91480663        1      -0.01050786      -0.00407969       0.00546283
Pt       4.24966191       2.45358270      26.91470852        1      -0.02083628      -0.01635952       0.00735691
Pt       7.05717381       2.45339634      26.91764918        1      -0.02046373      -0.01227511      -0.00713280
Pt       2.84615956       4.88467041      26.91999651        1      -0.02013482      -0.01266818      -0.01310376
Pt       5.65100544       4.88415495      26.92005932        1      -0.00705838      -0.00858592      -0.01738280
Pt       8.45852486       4.88391136      26.91478319        1      -0.00799098      -0.00565749       0.00570382
C        4.88400124       6.05725183      32.18253690        0       0.03346267       0.02549802      -0.01979819
O        4.92901772       6.08978874      33.36230999        0      -0.01596002      -0.01225343       0.01401082
O        4.84414228       6.02864022      31.00302004        0      -0.01681672      -0.01291756       0.00536699
