39
Lattice="8.421641763931781 0.0 0.0 4.2108208819658905 7.293355709136913 0.0 0.0 0.0 46.87624170604845" Properties=species:S:1:pos:R:3:tags:I:1:forces:R:3 charge=0 spin=0 energy=-209.3712463292976 free_energy=-209.3712463292976 stress="0.010509231127798557 8.518830327375326e-06 -9.263954780180939e-06 8.518830327375326e-06 0.010492105968296528 -7.674880180275068e-06 -9.263954780180939e-06 -7.674880180275068e-06 -4.642174826585688e-05" pbc="T T T"
Pt      -0.00000001       0.00000022      19.95723425        4      -0.00069831      -0.00036203       0.01525738
Pt       2.80721397      -0.00000009      19.95723437        4      -0.00037392      -0.00021687       0.01544731
Pt       5.61442779      -0.00000006      19.95723442        4      -0.00042845      -0.00070901       0.01530891
Pt       1.40360720       2.43111836      19.95723428        4      -0.00009148      -0.00045343       0.01555908
Pt       4.21082081       2.43111834      19.95723435        4      -0.00060935      -0.00019238       0.01531395
Pt       7.01803481       2.43111842      19.95723424        4      -0.00101355      -0.00045568       0.01524801
Pt       2.80721405       4.86223723      19.95723396        4      -0.00027482      -0.00048120       0.01504169
Pt       5.61442805       4.86223729      19.95723414        4      -0.00036048      -0.00038169       0.01518800
Pt       8.42164141       4.86223719      19.95723428        4      -0.00023482       0.00012337       0.01545556
Pt       1.40360726       0.81037260      22.29206791        3      -0.00219265      -0.00151307      -0.04550549
Pt       4.21082130       0.81037249      22.29206785        3      -0.00166980      -0.00137896      -0.04615690
Pt       7.01803472       0.81037257      22.29206783        3      -0.00157347      -0.00227913      -0.04514636
Pt       2.80721450       3.24149124      22.29206777        3      -0.00151216      -0.00059869      -0.04329009
Pt       5.61442762       3.24149124      22.29206789        3      -0.00227702      -0.00049497      -0.04460478
Pt       8.42164156       3.24149128      22.29206809        3      -0.00224298      -0.00125884      -0.04249042
Pt       4.21082092       5.67260996      22.29206799        3      -0.00157573      -0.00096014      -0.04887127
Pt       7.01803487       5.67261037      22.29206782        3      -0.00282433      -0.00134531      -0.04563846
Pt       9.82524820       5.67261064      22.29206809        3      -0.00161630      -0.00177022      -0.04354563
Pt      -0.00000052       1.62074570      24.58417379        2       0.00676818       0.00892098       0.04202450
Pt       2.80721442       1.62074548      24.58417394        2       0.00472619       0.00709891       0.04109440
Pt       5.61442780       1.62074537      24.58417373        2       0.00369618       0.00279663       0.04821717
Pt       1.40360637       4.05186438      24.58417386        2       0.00684818       0.00449789       0.03441153
Pt       4.21082089       4.05186400      24.58417379        2       0.00081553      -0.00767512       0.03248870
Pt       7.01803504       4.05186405      24.58417405        2       0.01092026       0.00137474       0.04290538
Pt       2.80721281       6.48298343      24.58417366        2      -0.00665695       0.00456292       0.03288746
Pt       5.61442797       6.48298326      24.58417386        2       0.01027686       0.00596325       0.02690935
Pt       8.42164223       6.48298340      24.58417377        2       0.00885744       0.00201247       0.04045663
Pt       0.00489289       0.00159669      26.91390187        1       0.00940030       0.02260185       0.00614788
Pt       2.81412512       0.00422659      26.91509593        1      -0.01155552      -0.00503714       0.00757025
Pt       5.61859327       0.00564734      26.92160713        1       0.00958403      -0.00379342      -0.02284105
Pt       1.41160722       2.44066553      26.91783963        1      -0.00832957      -0.03356882      -0.01122052
Pt       4.21637017       2.43262331      26.92149541        1       0.00452399       0.00991210      -0.02234464
Pt       7.02553504       2.43523065      26.91797713        1      -0.00522332      -0.00045274      -0.01379061
Pt       2.81687607       4.86861061      26.91916159        1      -0.01681440      -0.01150686      -0.01385976
Pt       5.61803771       4.86457785      26.91412632        1       0.02455203       0.00149070       0.00477446
Pt       8.43364688       4.86617838      26.91786725        1      -0.03337057       0.00370378      -0.01127418
C        4.58283422       5.90333234      31.93939869        0       0.01123865      -0.02051941      -0.01032970
O        5.20369788       6.25971126      32.87884861        0       0.00234499       0.01472706       0.00708170
O        3.96380704       5.54339581      31.00093313        0      -0.01103301       0.00761847       0.00612051
