39
Lattice="8.421641763931781 0.0 0.0 4.2108208819658905 7.293355709136913 0.0 0.0 0.0 46.87624170604845" Properties=species:S:1:pos:R:3:tags:I:1:forces:R:3 charge=0 spin=0 energy=-209.36670874690014 free_energy=-209.36670874690014 stress="0.01048311684280634 1.5121169781195931e-05 -3.47530544786423e-06 1.5121169781195931e-05 0.010460040532052517 -4.269892087904736e-06 -3.47530544786423e-06 -4.269892087904736e-06 -0.00010694638331187889" pbc="T T T"
Pt      -0.00000001       0.00000022      19.95723425        4      -0.00073684      -0.00053425       0.01507943
Pt       2.80721397      -0.00000009      19.95723437        4      -0.00057353      -0.00033604       0.01509506
Pt       5.61442779      -0.00000006      19.95723442        4      -0.00076305      -0.00056702       0.01529052
Pt       1.40360720       2.43111836      19.95723428        4      -0.00100685      -0.00031483       0.01518452
Pt       4.21082081       2.43111834      19.95723435        4      -0.00067044      -0.00063270       0.01533813
Pt       7.01803481       2.43111842      19.95723424        4      -0.00073274      -0.00037567       0.01529941
Pt       2.80721405       4.86223723      19.95723396        4      -0.00080684      -0.00080911       0.01509258
Pt       5.61442805       4.86223729      19.95723414        4      -0.00051126      -0.00034493       0.01507827
Pt       8.42164141       4.86223719      19.95723428        4      -0.00048498      -0.00066100       0.01523037
Pt       1.40360726       0.81037260      22.29206791        3      -0.00334872      -0.00246979      -0.04625550
Pt       4.21082130       0.81037249      22.29206785        3      -0.00310904      -0.00148502      -0.04631259
Pt       7.01803472       0.81037257      22.29206783        3      -0.00310091      -0.00239164      -0.04666879
Pt       2.80721450       3.24149124      22.29206777        3      -0.00276838      -0.00139621      -0.04430597
Pt       5.61442762       3.24149124      22.29206789        3      -0.00341289      -0.00139714      -0.04650626
Pt       8.42164156       3.24149128      22.29206809        3      -0.00394765      -0.00206070      -0.03966654
Pt       4.21082092       5.67260996      22.29206799        3      -0.00296383      -0.00158687      -0.04806938
Pt       7.01803487       5.67261037      22.29206782        3      -0.00433798      -0.00133208      -0.04620637
Pt       9.82524820       5.67261064      22.29206809        3      -0.00315231      -0.00153235      -0.04439589
Pt      -0.00000052       1.62074570      24.58417379        2       0.00980614       0.01451002       0.03105995
Pt       2.80721442       1.62074548      24.58417394        2       0.00836205       0.01211684       0.02883453
Pt       5.61442780       1.62074537      24.58417373        2       0.00690629       0.00336176       0.04339132
Pt       1.40360637       4.05186438      24.58417386        2       0.00564435       0.00360055       0.03589648
Pt       4.21082089       4.05186400      24.58417379        2       0.00714075      -0.00044602       0.03267230
Pt       7.01803504       4.05186405      24.58417405        2       0.01789467       0.00035939       0.03106856
Pt       2.80721281       6.48298343      24.58417366        2       0.00290521       0.00441879       0.03217107
Pt       5.61442797       6.48298326      24.58417386        2       0.00820647       0.00497410       0.02467298
Pt       8.42164223       6.48298340      24.58417377        2       0.01410343       0.00058672       0.02925842
Pt       0.01073190       0.01036876      26.91275637        1       0.00019967      -0.02905549       0.01263784
Pt       2.82090152       0.00793955      26.91237713        1      -0.01831230      -0.01233556       0.01597623
Pt       5.62387515       0.00443730      26.91899728        1       0.00944749       0.00828416      -0.01256428
Pt       1.41634096       2.43860809      26.91804487        1      -0.01212761      -0.00469515      -0.00826236
Pt       4.22025049       2.43661206      26.91915282        1       0.01048094       0.00388776      -0.01299331
Pt       7.02850837       2.43660799      26.91721240        1      -0.00126922      -0.00043524      -0.00670185
Pt       2.81904839       4.86829582      26.91627222        1       0.00488271       0.00444304      -0.00333771
Pt       5.62985995       4.86571735      26.91304507        1      -0.02763606       0.01481891       0.01160300
Pt       8.43498470       4.86900726      26.91823813        1      -0.01035100      -0.00823616      -0.00921280
C        4.78441776       5.99497797      32.43382707        0       0.00104523       0.01233011       0.02558025
O        5.01874566       6.14844353      33.58127467        0       0.00597668      -0.00195817       0.01535076
O        4.54931960       5.84273313      31.28764080        0      -0.00687780      -0.01030280      -0.04540284
