39
Lattice="8.421641763931781 0.0 0.0 4.2108208819658905 7.293355709136913 0.0 0.0 0.0 46.87624170604845" Properties=species:S:1:pos:R:3:tags:I:1:forces:R:3 charge=0 spin=0 energy=-209.36390780543286 free_energy=-209.36390780543286 stress="0.010572628118097782 5.172596502234228e-05 -1.052951006386138e-06 5.172596502234228e-05 0.010493752546608448 -4.119190634810366e-06 -1.052951006386138e-06 -4.119190634810366e-06 -2.0770163246197626e-05" pbc="T T T"
Pt      -0.00000001       0.00000022      19.95723425        4      -0.00225988      -0.00201649       0.01511372
Pt       2.80721397      -0.00000009      19.95723437        4      -0.00262285      -0.00189700       0.01531705
Pt       5.61442779      -0.00000006      19.95723442        4      -0.00221322      -0.00160435       0.01541077
Pt       1.40360720       2.43111836      19.95723428        4      -0.00248466      -0.00195598       0.01511906
Pt       4.21082081       2.43111834      19.95723435        4      -0.00209852      -0.00185436       0.01546645
Pt       7.01803481       2.43111842      19.95723424        4      -0.00239855      -0.00177739       0.01578562
Pt       2.80721405       4.86223723      19.95723396        4      -0.00201054      -0.00172369       0.01537496
Pt       5.61442805       4.86223729      19.95723414        4      -0.00232529      -0.00146137       0.01504837
Pt       8.42164141       4.86223719      19.95723428        4      -0.00235909      -0.00173237       0.01513482
Pt       1.40360726       0.81037260      22.29206791        3      -0.01097206      -0.00611053      -0.04553307
Pt       4.21082130       0.81037249      22.29206785        3      -0.01154629      -0.00617319      -0.04667348
Pt       7.01803472       0.81037257      22.29206783        3      -0.01107798      -0.00620134      -0.04448371
Pt       2.80721450       3.24149124      22.29206777        3      -0.01105148      -0.00549461      -0.04610328
Pt       5.61442762       3.24149124      22.29206789        3      -0.01088175      -0.00579111      -0.04472888
Pt       8.42164156       3.24149128      22.29206809        3      -0.01093019      -0.00586983      -0.04230823
Pt       4.21082092       5.67260996      22.29206799        3      -0.01118203      -0.00610439      -0.04445260
Pt       7.01803487       5.67261037      22.29206782        3      -0.01142719      -0.00564992      -0.04576118
Pt       9.82524820       5.67261064      22.29206809        3      -0.01119417      -0.00637205      -0.04616643
Pt      -0.00000052       1.62074570      24.58417379        2       0.02157947       0.01647383       0.05011576
Pt       2.80721442       1.62074548      24.58417394        2       0.02973232       0.01178449       0.03799762
Pt       5.61442780       1.62074537      24.58417373        2       0.03710046       0.02142062       0.04422623
Pt       1.40360637       4.05186438      24.58417386        2       0.02946498       0.01718363       0.04345439
Pt       4.21082089       4.05186400      24.58417379        2       0.03097677       0.02176855       0.03836068
Pt       7.01803504       4.05186405      24.58417405        2       0.02497778       0.00972928       0.04952758
Pt       2.80721281       6.48298343      24.58417366        2       0.03440779       0.01557649       0.03748961
Pt       5.61442797       6.48298326      24.58417386        2       0.02738058       0.01604697       0.04715060
Pt       8.42164223       6.48298340      24.58417377        2       0.02577882       0.01959215       0.03830002
Pt       0.04033750       0.02315065      26.92229040        1      -0.01648609      -0.01196299      -0.02610909
Pt       2.84659376       0.02167312      26.92105380        1      -0.01339037      -0.00624409      -0.01514729
Pt       5.65613940       0.02169890      26.91523851        1      -0.02473086       0.00003628       0.00430908
Pt       1.44338633       2.45137780      26.91666357        1      -0.01622095       0.00498775      -0.00179340
Pt       4.25046859       2.45535895      26.91512219        1      -0.01070714      -0.01988283       0.00442359
Pt       7.05964479       2.45488611      26.92464436        1      -0.02459721      -0.01499079      -0.03820965
Pt       2.84737985       4.88552884      26.92006452        1      -0.01505677      -0.01052921      -0.01431171
Pt       5.65429506       4.88465078      26.92236182        1      -0.01704624      -0.00715572      -0.02679471
Pt       8.45923587       4.88568173      26.91663531        1      -0.00256523      -0.01420142      -0.00159067
C        4.88455361       6.05769701      32.21765681        0       0.01349907       0.01033266      -0.04658422
O        4.92869536       6.08954069      33.39714903        0      -0.00541731      -0.00426125       0.04651056
O        4.84260067       6.02751883      31.03832516        0      -0.00764415      -0.00591433      -0.00288506
