39
Lattice="8.421641763931781 0.0 0.0 4.2108208819658905 7.293355709136913 0.0 0.0 0.0 46.87624170604845" Properties=species:S:1:pos:R:3:tags:I:1:forces:R:3 charge=0 spin=0 energy=-209.36671923731762 free_energy=-209.36671923731762 stress="0.010483003221452236 1.5098381481948309e-05 -3.515667003739509e-06 1.5098381481948309e-05 0.010459952056407928 -4.296327460906468e-06 -3.515667003739509e-06 -4.296327460906468e-06 -0.00010734121315181255" pbc="T T T"
Pt      -0.00000001       0.00000022      19.95723425        4      -0.00073608      -0.00053395       0.01507924
Pt       2.80721397      -0.00000009      19.95723437        4      -0.00057245      -0.00033552       0.01509534
Pt       5.61442779      -0.00000006      19.95723442        4      -0.00076287      -0.00056525       0.01529046
Pt       1.40360720       2.43111836      19.95723428        4      -0.00100687      -0.00031415       0.01518452
Pt       4.21082081       2.43111834      19.95723435        4      -0.00066908      -0.00063310       0.01533802
Pt       7.01803481       2.43111842      19.95723424        4      -0.00073160      -0.00037472       0.01529998
Pt       2.80721405       4.86223723      19.95723396        4      -0.00080546      -0.00080784       0.01509311
Pt       5.61442805       4.86223729      19.95723414        4      -0.00051057      -0.00034377       0.01507788
Pt       8.42164141       4.86223719      19.95723428        4      -0.00048442      -0.00066132       0.01523028
Pt       1.40360726       0.81037260      22.29206791        3      -0.00334365      -0.00246788      -0.04625650
Pt       4.21082130       0.81037249      22.29206785        3      -0.00310499      -0.00148284      -0.04631026
Pt       7.01803472       0.81037257      22.29206783        3      -0.00309733      -0.00238951      -0.04666780
Pt       2.80721450       3.24149124      22.29206777        3      -0.00276341      -0.00139391      -0.04430941
Pt       5.61442762       3.24149124      22.29206789        3      -0.00340831      -0.00139502      -0.04650676
Pt       8.42164156       3.24149128      22.29206809        3      -0.00394284      -0.00205838      -0.03965796
Pt       4.21082092       5.67260996      22.29206799        3      -0.00296001      -0.00158513      -0.04806706
Pt       7.01803487       5.67261037      22.29206782        3      -0.00433383      -0.00132890      -0.04620802
Pt       9.82524820       5.67261064      22.29206809        3      -0.00314791      -0.00152993      -0.04439862
Pt      -0.00000052       1.62074570      24.58417379        2       0.00978051       0.01453224       0.03104198
Pt       2.80721442       1.62074548      24.58417394        2       0.00835340       0.01210191       0.02881130
Pt       5.61442780       1.62074537      24.58417373        2       0.00691095       0.00335933       0.04338605
Pt       1.40360637       4.05186438      24.58417386        2       0.00561932       0.00358596       0.03590841
Pt       4.21082089       4.05186400      24.58417379        2       0.00712094      -0.00044525       0.03262835
Pt       7.01803504       4.05186405      24.58417405        2       0.01790311       0.00032594       0.03104755
Pt       2.80721281       6.48298343      24.58417366        2       0.00289408       0.00440635       0.03213784
Pt       5.61442797       6.48298326      24.58417386        2       0.00819987       0.00497198       0.02461792
Pt       8.42164223       6.48298340      24.58417377        2       0.01408937       0.00058777       0.02923704
Pt       0.01072078       0.01036652      26.91274334        1       0.00016841      -0.02908298       0.01270219
Pt       2.82088044       0.00792675      26.91237692        1      -0.01824874      -0.01229618       0.01598206
Pt       5.62386509       0.00442583      26.91898966        1       0.00942639       0.00830968      -0.01253317
Pt       1.41633066       2.43858656      26.91804371        1      -0.01215495      -0.00459560      -0.00825634
Pt       4.22023677       2.43661032      26.91914272        1       0.01048567       0.00384583      -0.01294534
Pt       7.02849335       2.43659973      26.91722240        1      -0.00125006      -0.00043011      -0.00675337
Pt       2.81903082       4.86828548      26.91626782        1       0.00488121       0.00444640      -0.00332804
Pt       5.62985066       4.86570749      26.91303131        1      -0.02766903       0.01481703       0.01167520
Pt       8.43496069       4.86900912      26.91823634        1      -0.01027201      -0.00830796      -0.00920581
C        4.78442343       5.99497959      32.43370947        0       0.00089090       0.01227752       0.02493708
O        5.01874026       6.14844014      33.58115299        0       0.00610626      -0.00189706       0.01593940
O        4.54933197       5.84274366      31.28751860        0      -0.00685393      -0.01031145      -0.04533677
