39
Lattice="8.421641763931781 0.0 0.0 4.2108208819658905 7.293355709136913 0.0 0.0 0.0 46.87624170604845" Properties=species:S:1:pos:R:3:tags:I:1:forces:R:3 charge=0 spin=0 energy=-209.3623876485725 free_energy=-209.3623876485725 stress="0.010582910850644112 6.335059879347682e-05 -1.6754906027927063e-05 6.335059879347682e-05 0.010477765463292599 -1.4371420547831804e-05 -1.6754906027927063e-05 -1.4371420547831804e-05 -5.0318707508267835e-05" pbc="T T T"
Pt      -0.00000001       0.00000022      19.95723425        4      -0.00334055      -0.00250366       0.01521964
Pt       2.80721397      -0.00000009      19.95723437        4      -0.00311155      -0.00240266       0.01532670
Pt       5.61442779      -0.00000006      19.95723442        4      -0.00309000      -0.00270732       0.01529444
Pt       1.40360720       2.43111836      19.95723428        4      -0.00303740      -0.00251639       0.01535895
Pt       4.21082081       2.43111834      19.95723435        4      -0.00319414      -0.00230932       0.01532784
Pt       7.01803481       2.43111842      19.95723424        4      -0.00356598      -0.00253287       0.01526843
Pt       2.80721405       4.86223723      19.95723396        4      -0.00309924      -0.00263651       0.01504659
Pt       5.61442805       4.86223729      19.95723414        4      -0.00308633      -0.00241471       0.01515918
Pt       8.42164141       4.86223719      19.95723428        4      -0.00295265      -0.00226118       0.01532483
Pt       1.40360726       0.81037260      22.29206791        3      -0.01501651      -0.00874206      -0.04538960
Pt       4.21082130       0.81037249      22.29206785        3      -0.01467138      -0.00834550      -0.04672071
Pt       7.01803472       0.81037257      22.29206783        3      -0.01468040      -0.00923588      -0.04517116
Pt       2.80721450       3.24149124      22.29206777        3      -0.01471457      -0.00786030      -0.04438549
Pt       5.61442762       3.24149124      22.29206789        3      -0.01523775      -0.00776060      -0.04482335
Pt       8.42164156       3.24149128      22.29206809        3      -0.01526861      -0.00834590      -0.04215404
Pt       4.21082092       5.67260996      22.29206799        3      -0.01482952      -0.00832700      -0.04771379
Pt       7.01803487       5.67261037      22.29206782        3      -0.01565502      -0.00827818      -0.04545102
Pt       9.82524820       5.67261064      22.29206809        3      -0.01474536      -0.00881000      -0.04456417
Pt      -0.00000052       1.62074570      24.58417379        2       0.04055410       0.02589130       0.04218237
Pt       2.80721442       1.62074548      24.58417394        2       0.03643563       0.02564164       0.04193692
Pt       5.61442780       1.62074537      24.58417373        2       0.03735019       0.02246043       0.04301863
Pt       1.40360637       4.05186438      24.58417386        2       0.03869998       0.02338267       0.03805672
Pt       4.21082089       4.05186400      24.58417379        2       0.03836516       0.01703397       0.03490267
Pt       7.01803504       4.05186405      24.58417405        2       0.04165982       0.02259728       0.04196438
Pt       2.80721281       6.48298343      24.58417366        2       0.03300469       0.02491283       0.03445389
Pt       5.61442797       6.48298326      24.58417386        2       0.04069657       0.02469555       0.03909469
Pt       8.42164223       6.48298340      24.58417377        2       0.03980252       0.02012729       0.04202738
Pt       0.05204455       0.03118653      26.91844027        1      -0.00452097      -0.00549535      -0.00785051
Pt       2.86183426       0.03204742      26.91776535        1      -0.03132144      -0.01821799      -0.00106531
Pt       5.66710845       0.03201395      26.92064106        1      -0.01655864      -0.01413587      -0.01413766
Pt       1.45741858       2.46588602      26.91939841        1      -0.01823666      -0.03260425      -0.01229742
Pt       4.26408804       2.46142339      26.92074472        1      -0.01871146      -0.00706459      -0.01443728
Pt       7.07150145       2.46241086      26.91879871        1      -0.01795615      -0.01070295      -0.00871145
Pt       2.86416821       4.89575021      26.91909999        1      -0.03228442      -0.01957956      -0.00651928
Pt       5.66726776       4.89193302      26.91868760        1      -0.00796092      -0.00067068      -0.00900409
Pt       8.47821209       4.89239736      26.91934071        1      -0.03620563      -0.00079878      -0.01209670
C        4.67185389       5.93993289      32.14231786        0      -0.02576821      -0.01506005       0.02668583
O        5.08541069       6.18710373      33.22053499        0       0.02837053       0.01671094       0.01733083
O        4.25292398       5.68936310      31.06799041        0      -0.00211757      -0.00113361      -0.04648783
