39
Lattice="8.421641763931781 0.0 0.0 4.2108208819658905 7.293355709136913 0.0 0.0 0.0 46.87624170604845" Properties=species:S:1:pos:R:3:tags:I:1:forces:R:3 charge=0 spin=0 energy=-209.37124919032055 free_energy=-209.37124919032055 stress="0.010509070008993149 8.42606277728919e-06 -9.512711585557554e-06 8.42606277728919e-06 0.010492059402167797 -7.817344339855481e-06 -9.512711585557554e-06 -7.817344339855481e-06 -4.680530400946736e-05" pbc="T T T"
Pt      -0.00000001       0.00000022      19.95723425        4      -0.00069844      -0.00036187       0.01525729
Pt       2.80721397      -0.00000009      19.95723437        4      -0.00037381      -0.00021680       0.01544733
Pt       5.61442779      -0.00000006      19.95723442        4      -0.00042866      -0.00070902       0.01530899
Pt       1.40360720       2.43111836      19.95723428        4      -0.00009163      -0.00045345       0.01555931
Pt       4.21082081       2.43111834      19.95723435        4      -0.00060933      -0.00019254       0.01531385
Pt       7.01803481       2.43111842      19.95723424        4      -0.00101339      -0.00045524       0.01524805
Pt       2.80721405       4.86223723      19.95723396        4      -0.00027518      -0.00048141       0.01504186
Pt       5.61442805       4.86223729      19.95723414        4      -0.00036017      -0.00038184       0.01518817
Pt       8.42164141       4.86223719      19.95723428        4      -0.00023458       0.00012315       0.01545545
Pt       1.40360726       0.81037260      22.29206791        3      -0.00219257      -0.00151310      -0.04550657
Pt       4.21082130       0.81037249      22.29206785        3      -0.00167059      -0.00137890      -0.04615794
Pt       7.01803472       0.81037257      22.29206783        3      -0.00157431      -0.00227928      -0.04514690
Pt       2.80721450       3.24149124      22.29206777        3      -0.00151176      -0.00059899      -0.04329016
Pt       5.61442762       3.24149124      22.29206789        3      -0.00227782      -0.00049529      -0.04460496
Pt       8.42164156       3.24149128      22.29206809        3      -0.00224250      -0.00125881      -0.04248707
Pt       4.21082092       5.67260996      22.29206799        3      -0.00157638      -0.00095990      -0.04887158
Pt       7.01803487       5.67261037      22.29206782        3      -0.00282506      -0.00134455      -0.04563864
Pt       9.82524820       5.67261064      22.29206809        3      -0.00161628      -0.00176948      -0.04354613
Pt      -0.00000052       1.62074570      24.58417379        2       0.00676682       0.00892986       0.04203089
Pt       2.80721442       1.62074548      24.58417394        2       0.00472019       0.00710108       0.04109446
Pt       5.61442780       1.62074537      24.58417373        2       0.00370409       0.00280098       0.04821705
Pt       1.40360637       4.05186438      24.58417386        2       0.00684222       0.00449211       0.03441053
Pt       4.21082089       4.05186400      24.58417379        2       0.00081919      -0.00767084       0.03249168
Pt       7.01803504       4.05186405      24.58417405        2       0.01092138       0.00137025       0.04291577
Pt       2.80721281       6.48298343      24.58417366        2      -0.00665687       0.00456037       0.03288183
Pt       5.61442797       6.48298326      24.58417386        2       0.01028127       0.00595923       0.02691536
Pt       8.42164223       6.48298340      24.58417377        2       0.00885726       0.00200792       0.04045450
Pt       0.00489325       0.00159805      26.91389914        1       0.00940508       0.02258980       0.00616118
Pt       2.81412970       0.00422881      26.91509571        1      -0.01157831      -0.00504907       0.00756230
Pt       5.61859357       0.00564764      26.92160673        1       0.00958961      -0.00379652      -0.02283287
Pt       1.41160722       2.44066580      26.91784224        1      -0.00833215      -0.03357371      -0.01123455
Pt       4.21637055       2.43262297      26.92149420        1       0.00452598       0.00992090      -0.02233414
Pt       7.02553496       2.43523055      26.91798227        1      -0.00521978      -0.00044914      -0.01381406
Pt       2.81687156       4.86860729      26.91915930        1      -0.01678228      -0.01149101      -0.01385299
Pt       5.61803991       4.86457681      26.91412648        1       0.02453858       0.00149860       0.00476076
Pt       8.43364693       4.86617802      26.91786998        1      -0.03337596       0.00370267      -0.01127813
C        4.58283479       5.90333730      31.93938608        0       0.01095441      -0.02069697      -0.01074022
O        5.20369053       6.25970491      32.87883546        0       0.00287523       0.01503934       0.00788081
O        3.96381184       5.54340854      31.00092146        0      -0.01128351       0.00748147       0.00573938
