39
Lattice="8.421641763931781 0.0 0.0 4.2108208819658905 7.293355709136913 0.0 0.0 0.0 46.87624170604845" Properties=species:S:1:pos:R:3:tags:I:1:forces:R:3 charge=0 spin=0 energy=-209.36239050959546 free_energy=-209.36239050959546 stress="0.01058290433138609 6.335210491670296e-05 -1.6805201084935106e-05 6.335210491670296e-05 0.010477744042873383 -1.439758671040181e-05 -1.6805201084935106e-05 -1.439758671040181e-05 -5.040331598138437e-05" pbc="T T T"
Pt      -0.00000001       0.00000022      19.95723425        4      -0.00334081      -0.00250420       0.01521978
Pt       2.80721397      -0.00000009      19.95723437        4      -0.00311201      -0.00240307       0.01532668
Pt       5.61442779      -0.00000006      19.95723442        4      -0.00309034      -0.00270746       0.01529423
Pt       1.40360720       2.43111836      19.95723428        4      -0.00303767      -0.00251680       0.01535888
Pt       4.21082081       2.43111834      19.95723435        4      -0.00319432      -0.00230989       0.01532767
Pt       7.01803481       2.43111842      19.95723424        4      -0.00356598      -0.00253280       0.01526828
Pt       2.80721405       4.86223723      19.95723396        4      -0.00309936      -0.00263671       0.01504697
Pt       5.61442805       4.86223729      19.95723414        4      -0.00308670      -0.00241486       0.01515929
Pt       8.42164141       4.86223719      19.95723428        4      -0.00295306      -0.00226154       0.01532477
Pt       1.40360726       0.81037260      22.29206791        3      -0.01501714      -0.00874293      -0.04538872
Pt       4.21082130       0.81037249      22.29206785        3      -0.01467267      -0.00834676      -0.04671947
Pt       7.01803472       0.81037257      22.29206783        3      -0.01468140      -0.00923731      -0.04517052
Pt       2.80721450       3.24149124      22.29206777        3      -0.01471555      -0.00786116      -0.04438769
Pt       5.61442762       3.24149124      22.29206789        3      -0.01523919      -0.00776105      -0.04482275
Pt       8.42164156       3.24149128      22.29206809        3      -0.01526867      -0.00834611      -0.04215058
Pt       4.21082092       5.67260996      22.29206799        3      -0.01483105      -0.00832782      -0.04771404
Pt       7.01803487       5.67261037      22.29206782        3      -0.01565636      -0.00827844      -0.04544937
Pt       9.82524820       5.67261064      22.29206809        3      -0.01474598      -0.00881031      -0.04456532
Pt      -0.00000052       1.62074570      24.58417379        2       0.04055448       0.02589370       0.04217452
Pt       2.80721442       1.62074548      24.58417394        2       0.03644037       0.02563824       0.04193304
Pt       5.61442780       1.62074537      24.58417373        2       0.03735397       0.02246372       0.04301216
Pt       1.40360637       4.05186438      24.58417386        2       0.03869572       0.02338322       0.03805095
Pt       4.21082089       4.05186400      24.58417379        2       0.03837115       0.01703806       0.03489631
Pt       7.01803504       4.05186405      24.58417405        2       0.04166282       0.02259898       0.04195969
Pt       2.80721281       6.48298343      24.58417366        2       0.03301053       0.02491683       0.03444686
Pt       5.61442797       6.48298326      24.58417386        2       0.04070247       0.02469954       0.03909539
Pt       8.42164223       6.48298340      24.58417377        2       0.03980117       0.02013160       0.04202897
Pt       0.05205035       0.03119054      26.91844042        1      -0.00452946      -0.00550736      -0.00785471
Pt       2.86183984       0.03205115      26.91776789        1      -0.03133533      -0.01822897      -0.00105691
Pt       5.66711453       0.03201727      26.92063876        1      -0.01657041      -0.01414004      -0.01412886
Pt       1.45742191       2.46588583      26.91939694        1      -0.01823752      -0.03259065      -0.01228635
Pt       4.26409300       2.46142767      26.92074209        1      -0.01871540      -0.00707154      -0.01442910
Pt       7.07150569       2.46241406      26.91879786        1      -0.01795899      -0.01070227      -0.00870911
Pt       2.86416767       4.89575061      26.91909652        1      -0.03226553      -0.01956929      -0.00651156
Pt       5.66727317       4.89193702      26.91868724        1      -0.00797295      -0.00067597      -0.00900631
Pt       8.47821340       4.89240102      26.91933973        1      -0.03619548      -0.00080211      -0.01209679
C        4.67187199       5.93994334      32.14209808        0      -0.02610507      -0.01526297       0.02574512
O        5.08539997       6.18709598      33.22032305        0       0.02858126       0.01683751       0.01789164
O        4.25296767       5.68938968      31.06775138        0      -0.00197926      -0.00105101      -0.04611310
