39
Lattice="8.421641763931781 0.0 0.0 4.2108208819658905 7.293355709136913 0.0 0.0 0.0 46.87624170604845" Properties=species:S:1:pos:R:3:tags:I:1:forces:R:3 charge=0 spin=0 energy=-209.36670397852856 free_energy=-209.36670397852856 stress="0.010482941754162312 1.5091271052369848e-05 -3.6014091620018007e-06 1.5091271052369848e-05 0.0104599017649889 -4.349639311840292e-06 -3.6014091620018007e-06 -4.349639311840292e-06 -0.00010774500697152689" pbc="T T T"
Pt      -0.00000001       0.00000022      19.95723425        4      -0.00073596      -0.00053288       0.01507979
Pt       2.80721397      -0.00000009      19.95723437        4      -0.00057193      -0.00033486       0.01509455
Pt       5.61442779      -0.00000006      19.95723442        4      -0.00076343      -0.00056670       0.01529022
Pt       1.40360720       2.43111836      19.95723428        4      -0.00100773      -0.00031303       0.01518410
Pt       4.21082081       2.43111834      19.95723435        4      -0.00067055      -0.00063309       0.01533787
Pt       7.01803481       2.43111842      19.95723424        4      -0.00073076      -0.00037417       0.01529928
Pt       2.80721405       4.86223723      19.95723396        4      -0.00080746      -0.00080988       0.01509194
Pt       5.61442805       4.86223729      19.95723414        4      -0.00050934      -0.00034435       0.01507903
Pt       8.42164141       4.86223719      19.95723428        4      -0.00048379      -0.00066217       0.01523009
Pt       1.40360726       0.81037260      22.29206791        3      -0.00334494      -0.00247067      -0.04625728
Pt       4.21082130       0.81037249      22.29206785        3      -0.00310492      -0.00148192      -0.04631396
Pt       7.01803472       0.81037257      22.29206783        3      -0.00309810      -0.00239144      -0.04667487
Pt       2.80721450       3.24149124      22.29206777        3      -0.00276146      -0.00139467      -0.04430126
Pt       5.61442762       3.24149124      22.29206789        3      -0.00341129      -0.00139541      -0.04651225
Pt       8.42164156       3.24149128      22.29206809        3      -0.00394651      -0.00206068      -0.03964635
Pt       4.21082092       5.67260996      22.29206799        3      -0.00295931      -0.00158429      -0.04808015
Pt       7.01803487       5.67261037      22.29206782        3      -0.00433749      -0.00132800      -0.04620960
Pt       9.82524820       5.67261064      22.29206809        3      -0.00314857      -0.00152800      -0.04439133
Pt      -0.00000052       1.62074570      24.58417379        2       0.00979769       0.01454815       0.03103359
Pt       2.80721442       1.62074548      24.58417394        2       0.00834511       0.01213936       0.02876921
Pt       5.61442780       1.62074537      24.58417373        2       0.00689997       0.00335519       0.04342023
Pt       1.40360637       4.05186438      24.58417386        2       0.00560615       0.00358049       0.03583160
Pt       4.21082089       4.05186400      24.58417379        2       0.00713437      -0.00046761       0.03265322
Pt       7.01803504       4.05186405      24.58417405        2       0.01792676       0.00033425       0.03104813
Pt       2.80721281       6.48298343      24.58417366        2       0.00288076       0.00442171       0.03215457
Pt       5.61442797       6.48298326      24.58417386        2       0.00819290       0.00496645       0.02464097
Pt       8.42164223       6.48298340      24.58417377        2       0.01411434       0.00056125       0.02920083
Pt       0.01071627       0.01038299      26.91273378        1       0.00022216      -0.02918736       0.01271016
Pt       2.82090575       0.00794364      26.91235420        1      -0.01842955      -0.01241468       0.01608944
Pt       5.62384839       0.00442221      26.91900414        1       0.00956910       0.00835187      -0.01258851
Pt       1.41633921       2.43861074      26.91804898        1      -0.01220701      -0.00475355      -0.00825212
Pt       4.22022446       2.43659691      26.91915945        1       0.01060499       0.00395978      -0.01300838
Pt       7.02849496       2.43659862      26.91721696        1      -0.00127025      -0.00042541      -0.00672854
Pt       2.81901872       4.86827802      26.91625482        1       0.00504085       0.00453682      -0.00327079
Pt       5.62986577       4.86569670      26.91302375        1      -0.02773864       0.01490135       0.01167420
Pt       8.43498751       4.86900406      26.91824265        1      -0.01044616      -0.00827450      -0.00921210
C        4.78440281       5.99496887      32.43408833        0       0.00108178       0.01235865       0.02535964
O        5.01875370       6.14844872      33.58152452        0       0.00610535      -0.00187696       0.01616747
O        4.54929316       5.84271755      31.28791333        0      -0.00703705      -0.01040883      -0.04599275
