39
Lattice="8.421641763931781 0.0 0.0 4.2108208819658905 7.293355709136913 0.0 0.0 0.0 46.87624170604845" Properties=species:S:1:pos:R:3:tags:I:1:forces:R:3 charge=0 spin=0 energy=-209.3712463292976 free_energy=-209.3712463292976 stress="0.010509154759347439 8.436621101282071e-06 -9.488691830483731e-06 8.436621101282071e-06 0.010492123663425446 -7.803429070918355e-06 -9.488691830483731e-06 -7.803429070918355e-06 -4.664397783926688e-05" pbc="T T T"
Pt      -0.00000001       0.00000022      19.95723425        4      -0.00069866      -0.00036183       0.01525751
Pt       2.80721397      -0.00000009      19.95723437        4      -0.00037365      -0.00021645       0.01544735
Pt       5.61442779      -0.00000006      19.95723442        4      -0.00042866      -0.00070886       0.01530886
Pt       1.40360720       2.43111836      19.95723428        4      -0.00009196      -0.00045307       0.01555903
Pt       4.21082081       2.43111834      19.95723435        4      -0.00060949      -0.00019261       0.01531389
Pt       7.01803481       2.43111842      19.95723424        4      -0.00101284      -0.00045501       0.01524799
Pt       2.80721405       4.86223723      19.95723396        4      -0.00027572      -0.00048169       0.01504179
Pt       5.61442805       4.86223729      19.95723414        4      -0.00035987      -0.00038219       0.01518840
Pt       8.42164141       4.86223719      19.95723428        4      -0.00023436       0.00012286       0.01545547
Pt       1.40360726       0.81037260      22.29206791        3      -0.00219151      -0.00151490      -0.04550922
Pt       4.21082130       0.81037249      22.29206785        3      -0.00167001      -0.00137895      -0.04616081
Pt       7.01803472       0.81037257      22.29206783        3      -0.00157468      -0.00227994      -0.04514818
Pt       2.80721450       3.24149124      22.29206777        3      -0.00150982      -0.00060002      -0.04328829
Pt       5.61442762       3.24149124      22.29206789        3      -0.00227799      -0.00049513      -0.04460591
Pt       8.42164156       3.24149128      22.29206809        3      -0.00224287      -0.00125917      -0.04248069
Pt       4.21082092       5.67260996      22.29206799        3      -0.00157502      -0.00095946      -0.04887502
Pt       7.01803487       5.67261037      22.29206782        3      -0.00282584      -0.00134327      -0.04564095
Pt       9.82524820       5.67261064      22.29206809        3      -0.00161615      -0.00176806      -0.04354358
Pt      -0.00000052       1.62074570      24.58417379        2       0.00676127       0.00894831       0.04205483
Pt       2.80721442       1.62074548      24.58417394        2       0.00471570       0.00711339       0.04110566
Pt       5.61442780       1.62074537      24.58417373        2       0.00371166       0.00280622       0.04824959
Pt       1.40360637       4.05186438      24.58417386        2       0.00683176       0.00448578       0.03441995
Pt       4.21082089       4.05186400      24.58417379        2       0.00081288      -0.00767670       0.03249736
Pt       7.01803504       4.05186405      24.58417405        2       0.01093635       0.00135453       0.04294069
Pt       2.80721281       6.48298343      24.58417366        2      -0.00666299       0.00455850       0.03288973
Pt       5.61442797       6.48298326      24.58417386        2       0.01028140       0.00596097       0.02692183
Pt       8.42164223       6.48298340      24.58417377        2       0.00886502       0.00199900       0.04046397
Pt       0.00489042       0.00160179      26.91389478        1       0.00942468       0.02256529       0.00616835
Pt       2.81413563       0.00423214      26.91509240        1      -0.01162253      -0.00507268       0.00758306
Pt       5.61859339       0.00564732      26.92161136        1       0.00959624      -0.00378864      -0.02285339
Pt       1.41160745       2.44066813      26.91785113        1      -0.00834178      -0.03359427      -0.01126362
Pt       4.21636996       2.43262333      26.92149960        1       0.00453544       0.00992018      -0.02235581
Pt       7.02553493       2.43522911      26.91799788        1      -0.00522076      -0.00044281      -0.01387751
Pt       2.81686458       4.86860409      26.91915854        1      -0.01673857      -0.01146908      -0.01385395
Pt       5.61804175       4.86457119      26.91412142        1       0.02453008       0.00153374       0.00477605
Pt       8.43364919       4.86617771      26.91787713        1      -0.03339835       0.00370005      -0.01130642
C        4.58283719       5.90334227      31.93936808        0       0.01079983      -0.02084403      -0.01091983
O        5.20369017       6.25970250      32.87881917        0       0.00290707       0.01508698       0.00789446
O        3.96381234       5.54340856      31.00090213        0      -0.01115519       0.00758274       0.00589744
