39
Lattice="8.421641763931781 0.0 0.0 4.2108208819658905 7.293355709136913 0.0 0.0 0.0 46.87624170604845" Properties=species:S:1:pos:R:3:tags:I:1:forces:R:3 charge=0 spin=0 energy=-209.3623819265266 free_energy=-209.3623819265266 stress="0.01058290433138609 6.333766941679642e-05 -1.6755433534854092e-05 6.333766941679642e-05 0.010477789677679539 -1.437378341506701e-05 -1.6755433534854092e-05 -1.437378341506701e-05 -5.030836473451927e-05" pbc="T T T"
Pt      -0.00000001       0.00000022      19.95723425        4      -0.00333986      -0.00250348       0.01521923
Pt       2.80721397      -0.00000009      19.95723437        4      -0.00311166      -0.00240281       0.01532638
Pt       5.61442779      -0.00000006      19.95723442        4      -0.00308985      -0.00270753       0.01529408
Pt       1.40360720       2.43111836      19.95723428        4      -0.00303655      -0.00251648       0.01535869
Pt       4.21082081       2.43111834      19.95723435        4      -0.00319430      -0.00230913       0.01532791
Pt       7.01803481       2.43111842      19.95723424        4      -0.00356623      -0.00253305       0.01526821
Pt       2.80721405       4.86223723      19.95723396        4      -0.00309890      -0.00263614       0.01504674
Pt       5.61442805       4.86223729      19.95723414        4      -0.00308614      -0.00241409       0.01515886
Pt       8.42164141       4.86223719      19.95723428        4      -0.00295245      -0.00226028       0.01532434
Pt       1.40360726       0.81037260      22.29206791        3      -0.01501651      -0.00874046      -0.04538720
Pt       4.21082130       0.81037249      22.29206785        3      -0.01467034      -0.00834566      -0.04671687
Pt       7.01803472       0.81037257      22.29206783        3      -0.01467976      -0.00923487      -0.04517172
Pt       2.80721450       3.24149124      22.29206777        3      -0.01471555      -0.00786027      -0.04438587
Pt       5.61442762       3.24149124      22.29206789        3      -0.01523580      -0.00776046      -0.04482410
Pt       8.42164156       3.24149128      22.29206809        3      -0.01526826      -0.00834629      -0.04216627
Pt       4.21082092       5.67260996      22.29206799        3      -0.01482885      -0.00832624      -0.04771205
Pt       7.01803487       5.67261037      22.29206782        3      -0.01565337      -0.00827941      -0.04544895
Pt       9.82524820       5.67261064      22.29206809        3      -0.01474512      -0.00881079      -0.04456344
Pt      -0.00000052       1.62074570      24.58417379        2       0.04055376       0.02587008       0.04219273
Pt       2.80721442       1.62074548      24.58417394        2       0.03644073       0.02562890       0.04192868
Pt       5.61442780       1.62074537      24.58417373        2       0.03734508       0.02245773       0.04302771
Pt       1.40360637       4.05186438      24.58417386        2       0.03871803       0.02339408       0.03805244
Pt       4.21082089       4.05186400      24.58417379        2       0.03836269       0.01703399       0.03491938
Pt       7.01803504       4.05186405      24.58417405        2       0.04164076       0.02260765       0.04197543
Pt       2.80721281       6.48298343      24.58417366        2       0.03300402       0.02491089       0.03446816
Pt       5.61442797       6.48298326      24.58417386        2       0.04069262       0.02469190       0.03910636
Pt       8.42164223       6.48298340      24.58417377        2       0.03979234       0.02013781       0.04202146
Pt       0.05204150       0.03117726      26.91844721        1      -0.00452845      -0.00543594      -0.00787258
Pt       2.86182609       0.03204299      26.91776853        1      -0.03129296      -0.01820244      -0.00109440
Pt       5.66710111       0.03201004      26.92064066        1      -0.01652991      -0.01411278      -0.01414084
Pt       1.45742005       2.46588657      26.91939148        1      -0.01826191      -0.03261066      -0.01226568
Pt       4.26408110       2.46141876      26.92074463        1      -0.01867668      -0.00705048      -0.01444076
Pt       7.07150148       2.46241103      26.91879329        1      -0.01797416      -0.01071184      -0.00870157
Pt       2.86417513       4.89575447      26.91910841        1      -0.03233071      -0.01960888      -0.00654413
Pt       5.66725871       4.89193535      26.91869511        1      -0.00791622      -0.00070714      -0.00902695
Pt       8.47821341       4.89239823      26.91933326        1      -0.03622610      -0.00081733      -0.01206742
C        4.67184153       5.93992613      32.14260757        0      -0.02698326      -0.01579874       0.02383993
O        5.08541845       6.18710821      33.22079458        0       0.02899303       0.01708941       0.01881165
O        4.25286540       5.68932793      31.06828642        0      -0.00153320      -0.00077856      -0.04513754
