39
Lattice="8.421641763931781 0.0 0.0 4.2108208819658905 7.293355709136913 0.0 0.0 0.0 46.87624170604845" Properties=species:S:1:pos:R:3:tags:I:1:forces:R:3 charge=0 spin=0 energy=-209.36238288020093 free_energy=-209.36238288020093 stress="0.010582867078483105 6.333644705591723e-05 -1.6915140804485418e-05 6.333644705591723e-05 0.010477733798325062 -1.4464207197306678e-05 -1.6915140804485418e-05 -1.4464207197306678e-05 -5.068192695034668e-05" pbc="T T T"
Pt      -0.00000001       0.00000022      19.95723425        4      -0.00334087      -0.00250424       0.01521981
Pt       2.80721397      -0.00000009      19.95723437        4      -0.00311264      -0.00240314       0.01532655
Pt       5.61442779      -0.00000006      19.95723442        4      -0.00309071      -0.00270788       0.01529411
Pt       1.40360720       2.43111836      19.95723428        4      -0.00303768      -0.00251728       0.01535867
Pt       4.21082081       2.43111834      19.95723435        4      -0.00319487      -0.00230987       0.01532771
Pt       7.01803481       2.43111842      19.95723424        4      -0.00356652      -0.00253311       0.01526841
Pt       2.80721405       4.86223723      19.95723396        4      -0.00309997      -0.00263715       0.01504676
Pt       5.61442805       4.86223729      19.95723414        4      -0.00308699      -0.00241521       0.01515931
Pt       8.42164141       4.86223719      19.95723428        4      -0.00295323      -0.00226140       0.01532453
Pt       1.40360726       0.81037260      22.29206791        3      -0.01501921      -0.00874434      -0.04538761
Pt       4.21082130       0.81037249      22.29206785        3      -0.01467379      -0.00834746      -0.04671904
Pt       7.01803472       0.81037257      22.29206783        3      -0.01468314      -0.00923823      -0.04517114
Pt       2.80721450       3.24149124      22.29206777        3      -0.01471725      -0.00786198      -0.04438607
Pt       5.61442762       3.24149124      22.29206789        3      -0.01524045      -0.00776210      -0.04482277
Pt       8.42164156       3.24149128      22.29206809        3      -0.01527105      -0.00834745      -0.04215308
Pt       4.21082092       5.67260996      22.29206799        3      -0.01483245      -0.00832873      -0.04771425
Pt       7.01803487       5.67261037      22.29206782        3      -0.01565803      -0.00827992      -0.04544959
Pt       9.82524820       5.67261064      22.29206809        3      -0.01474763      -0.00881191      -0.04456389
Pt      -0.00000052       1.62074570      24.58417379        2       0.04056032       0.02588770       0.04218405
Pt       2.80721442       1.62074548      24.58417394        2       0.03644418       0.02564227       0.04192312
Pt       5.61442780       1.62074537      24.58417373        2       0.03735702       0.02246779       0.04301348
Pt       1.40360637       4.05186438      24.58417386        2       0.03870412       0.02338871       0.03803569
Pt       4.21082089       4.05186400      24.58417379        2       0.03837566       0.01703858       0.03490255
Pt       7.01803504       4.05186405      24.58417405        2       0.04166181       0.02260582       0.04196521
Pt       2.80721281       6.48298343      24.58417366        2       0.03301656       0.02492123       0.03445154
Pt       5.61442797       6.48298326      24.58417386        2       0.04070501       0.02470342       0.03910409
Pt       8.42164223       6.48298340      24.58417377        2       0.03980505       0.02013256       0.04201649
Pt       0.05205594       0.03119099      26.91844319        1      -0.00452614      -0.00548370      -0.00787604
Pt       2.86184936       0.03205667      26.91776741        1      -0.03137043      -0.01824665      -0.00104139
Pt       5.66711774       0.03202043      26.92063983        1      -0.01654498      -0.01413264      -0.01412572
Pt       1.45743037       2.46589344      26.91939609        1      -0.01825755      -0.03262310      -0.01227318
Pt       4.26409685       2.46142891      26.92074399        1      -0.01869574      -0.00705256      -0.01443507
Pt       7.07151234       2.46241806      26.91879679        1      -0.01796403      -0.01070664      -0.00870536
Pt       2.86417367       4.89575463      26.91909728        1      -0.03225784      -0.01956820      -0.00651234
Pt       5.66727662       4.89194180      26.91868942        1      -0.00795376      -0.00068326      -0.00901955
Pt       8.47822391       4.89240456      26.91933818        1      -0.03623148      -0.00080459      -0.01208464
C        4.67189287       5.93995540      32.14208416        0      -0.02775577      -0.01624743       0.02227594
O        5.08538688       6.18708818      33.22029766        0       0.02954740       0.01741352       0.02000096
O        4.25296463       5.68938772      31.06773210        0      -0.00129287      -0.00064145      -0.04475814
