39
Lattice="8.421641763931781 0.0 0.0 4.2108208819658905 7.293355709136913 0.0 0.0 0.0 46.87624170604845" Properties=species:S:1:pos:R:3:tags:I:1:forces:R:3 charge=0 spin=0 energy=-209.36670397852856 free_energy=-209.36670397852856 stress="0.010483221150934696 1.515822259534616e-05 -3.623992597567849e-06 1.515822259534616e-05 0.01046005729585886 -4.371972863737028e-06 -3.623992597567849e-06 -4.371972863737028e-06 -0.0001075554100680165" pbc="T T T"
Pt      -0.00000001       0.00000022      19.95723425        4      -0.00073962      -0.00053473       0.01508053
Pt       2.80721397      -0.00000009      19.95723437        4      -0.00057559      -0.00033755       0.01509432
Pt       5.61442779      -0.00000006      19.95723442        4      -0.00076533      -0.00057144       0.01529069
Pt       1.40360720       2.43111836      19.95723428        4      -0.00100863      -0.00031659       0.01518469
Pt       4.21082081       2.43111834      19.95723435        4      -0.00067489      -0.00063343       0.01533842
Pt       7.01803481       2.43111842      19.95723424        4      -0.00073482      -0.00037745       0.01529900
Pt       2.80721405       4.86223723      19.95723396        4      -0.00081102      -0.00081244       0.01509116
Pt       5.61442805       4.86223729      19.95723414        4      -0.00051275      -0.00034783       0.01507945
Pt       8.42164141       4.86223719      19.95723428        4      -0.00048675      -0.00066199       0.01523090
Pt       1.40360726       0.81037260      22.29206791        3      -0.00336268      -0.00247838      -0.04625244
Pt       4.21082130       0.81037249      22.29206785        3      -0.00311962      -0.00149085      -0.04631779
Pt       7.01803472       0.81037257      22.29206783        3      -0.00311190      -0.00239911      -0.04667241
Pt       2.80721450       3.24149124      22.29206777        3      -0.00277951      -0.00140303      -0.04429615
Pt       5.61442762       3.24149124      22.29206789        3      -0.00342571      -0.00140304      -0.04650949
Pt       8.42164156       3.24149128      22.29206809        3      -0.00396272      -0.00206947      -0.03966637
Pt       4.21082092       5.67260996      22.29206799        3      -0.00297500      -0.00159301      -0.04808341
Pt       7.01803487       5.67261037      22.29206782        3      -0.00435192      -0.00133865      -0.04620607
Pt       9.82524820       5.67261064      22.29206809        3      -0.00316520      -0.00153857      -0.04438601
Pt      -0.00000052       1.62074570      24.58417379        2       0.00986916       0.01451010       0.03108185
Pt       2.80721442       1.62074548      24.58417394        2       0.00838112       0.01217049       0.02884027
Pt       5.61442780       1.62074537      24.58417373        2       0.00691232       0.00336600       0.04342238
Pt       1.40360637       4.05186438      24.58417386        2       0.00567485       0.00362039       0.03582319
Pt       4.21082089       4.05186400      24.58417379        2       0.00719258      -0.00045843       0.03272359
Pt       7.01803504       4.05186405      24.58417405        2       0.01792688       0.00041256       0.03109640
Pt       2.80721281       6.48298343      24.58417366        2       0.00292070       0.00446607       0.03221589
Pt       5.61442797       6.48298326      24.58417386        2       0.00823255       0.00499022       0.02472774
Pt       8.42164223       6.48298340      24.58417377        2       0.01415775       0.00058049       0.02927084
Pt       0.01077054       0.01039303      26.91276389        1       0.00023717      -0.02905937       0.01256909
Pt       2.82096488       0.00797965      26.91236207        1      -0.01848840      -0.01245712       0.01604224
Pt       5.62390130       0.00446402      26.91902104        1       0.00954998       0.00827156      -0.01266082
Pt       1.41638357       2.43866702      26.91805400        1      -0.01214727      -0.00493636      -0.00828426
Pt       4.22028489       2.43661913      26.91917751        1       0.01053860       0.00400343      -0.01309070
Pt       7.02855043       2.43663003      26.91719443        1      -0.00130697      -0.00043750      -0.00662738
Pt       2.81908616       4.86831780      26.91626354        1       0.00497168       0.00449008      -0.00326854
Pt       5.62990281       4.86574086      26.91305436        1      -0.02762932       0.01483617       0.01152861
Pt       8.43505728       4.86901564      26.91824703        1      -0.01057478      -0.00813102      -0.00923744
C        4.78440683       5.99497646      32.43395640        0       0.00081762       0.01207119       0.02373759
O        5.01874570       6.14844005      33.58138465        0       0.00628251      -0.00170252       0.01721293
O        4.54931560       5.84272828      31.28776892        0      -0.00695522      -0.01029868      -0.04542286
