39
Lattice="8.421641763931781 0.0 0.0 4.2108208819658905 7.293355709136913 0.0 0.0 0.0 46.87624170604845" Properties=species:S:1:pos:R:3:tags:I:1:forces:R:3 charge=0 spin=0 energy=-209.3712463292976 free_energy=-209.3712463292976 stress="0.010509079322218895 8.393956704821903e-06 -9.602405043551698e-06 8.393956704821903e-06 0.010492105968296528 -7.868484317441471e-06 -9.602405043551698e-06 -7.868484317441471e-06 -4.681426435126923e-05" pbc="T T T"
Pt      -0.00000001       0.00000022      19.95723425        4      -0.00069863      -0.00036173       0.01525757
Pt       2.80721397      -0.00000009      19.95723437        4      -0.00037346      -0.00021639       0.01544729
Pt       5.61442779      -0.00000006      19.95723442        4      -0.00042878      -0.00070897       0.01530872
Pt       1.40360720       2.43111836      19.95723428        4      -0.00009223      -0.00045293       0.01555899
Pt       4.21082081       2.43111834      19.95723435        4      -0.00060945      -0.00019270       0.01531391
Pt       7.01803481       2.43111842      19.95723424        4      -0.00101311      -0.00045508       0.01524824
Pt       2.80721405       4.86223723      19.95723396        4      -0.00027579      -0.00048173       0.01504184
Pt       5.61442805       4.86223729      19.95723414        4      -0.00035995      -0.00038225       0.01518844
Pt       8.42164141       4.86223719      19.95723428        4      -0.00023420       0.00012275       0.01545558
Pt       1.40360726       0.81037260      22.29206791        3      -0.00219178      -0.00151466      -0.04550947
Pt       4.21082130       0.81037249      22.29206785        3      -0.00167059      -0.00137925      -0.04616147
Pt       7.01803472       0.81037257      22.29206783        3      -0.00157444      -0.00227977      -0.04514793
Pt       2.80721450       3.24149124      22.29206777        3      -0.00150962      -0.00059976      -0.04328863
Pt       5.61442762       3.24149124      22.29206789        3      -0.00227780      -0.00049489      -0.04460554
Pt       8.42164156       3.24149128      22.29206809        3      -0.00224276      -0.00125894      -0.04247947
Pt       4.21082092       5.67260996      22.29206799        3      -0.00157489      -0.00095891      -0.04887564
Pt       7.01803487       5.67261037      22.29206782        3      -0.00282596      -0.00134283      -0.04564165
Pt       9.82524820       5.67261064      22.29206809        3      -0.00161626      -0.00176783      -0.04354412
Pt      -0.00000052       1.62074570      24.58417379        2       0.00675967       0.00894920       0.04205813
Pt       2.80721442       1.62074548      24.58417394        2       0.00471476       0.00711239       0.04110356
Pt       5.61442780       1.62074537      24.58417373        2       0.00371397       0.00280725       0.04825165
Pt       1.40360637       4.05186438      24.58417386        2       0.00682967       0.00448663       0.03442016
Pt       4.21082089       4.05186400      24.58417379        2       0.00081302      -0.00767663       0.03249905
Pt       7.01803504       4.05186405      24.58417405        2       0.01093916       0.00135412       0.04294562
Pt       2.80721281       6.48298343      24.58417366        2      -0.00666269       0.00455793       0.03289155
Pt       5.61442797       6.48298326      24.58417386        2       0.01028101       0.00596055       0.02692619
Pt       8.42164223       6.48298340      24.58417377        2       0.00886473       0.00199633       0.04046414
Pt       0.00489009       0.00160254      26.91389420        1       0.00942772       0.02255943       0.00616629
Pt       2.81413631       0.00423251      26.91509202        1      -0.01162814      -0.00507648       0.00757907
Pt       5.61859256       0.00564739      26.92161257        1       0.00960289      -0.00378974      -0.02285195
Pt       1.41160772       2.44066907      26.91785068        1      -0.00834528      -0.03359999      -0.01126140
Pt       4.21636940       2.43262183      26.92149951        1       0.00453945       0.00993022      -0.02235454
Pt       7.02553497       2.43522929      26.91799881        1      -0.00521877      -0.00044229      -0.01388573
Pt       2.81686405       4.86860319      26.91915849        1      -0.01673275      -0.01146300      -0.01385424
Pt       5.61804204       4.86457014      26.91412208        1       0.02452761       0.00153823       0.00477386
Pt       8.43364978       4.86617801      26.91787817        1      -0.03340513       0.00369670      -0.01131458
C        4.58283974       5.90334511      31.93936143        0       0.01051643      -0.02102648      -0.01127611
O        5.20368739       6.25970000      32.87881124        0       0.00322654       0.01528009       0.00834442
O        3.96381424       5.54340967      31.00089777        0      -0.01119395       0.00757127       0.00580813
