39
Lattice="8.421641763931781 0.0 0.0 4.2108208819658905 7.293355709136913 0.0 0.0 0.0 46.87624170604845" Properties=species:S:1:pos:R:3:tags:I:1:forces:R:3 charge=0 spin=0 energy=-209.36238288020093 free_energy=-209.36238288020093 stress="0.010582860559225082 6.33097515674308e-05 -1.6927468095673248e-05 6.33097515674308e-05 0.010477760806679726 -1.4473342162091285e-05 -1.6927468095673248e-05 -1.4473342162091285e-05 -5.072325802757405e-05" pbc="T T T"
Pt      -0.00000001       0.00000022      19.95723425        4      -0.00334004      -0.00250370       0.01521957
Pt       2.80721397      -0.00000009      19.95723437        4      -0.00311205      -0.00240298       0.01532657
Pt       5.61442779      -0.00000006      19.95723442        4      -0.00308998      -0.00270765       0.01529411
Pt       1.40360720       2.43111836      19.95723428        4      -0.00303702      -0.00251678       0.01535908
Pt       4.21082081       2.43111834      19.95723435        4      -0.00319435      -0.00230932       0.01532776
Pt       7.01803481       2.43111842      19.95723424        4      -0.00356646      -0.00253303       0.01526821
Pt       2.80721405       4.86223723      19.95723396        4      -0.00309912      -0.00263658       0.01504671
Pt       5.61442805       4.86223729      19.95723414        4      -0.00308651      -0.00241454       0.01515903
Pt       8.42164141       4.86223719      19.95723428        4      -0.00295273      -0.00226087       0.01532443
Pt       1.40360726       0.81037260      22.29206791        3      -0.01501699      -0.00874127      -0.04538658
Pt       4.21082130       0.81037249      22.29206785        3      -0.01467104      -0.00834543      -0.04671840
Pt       7.01803472       0.81037257      22.29206783        3      -0.01468091      -0.00923566      -0.04517200
Pt       2.80721450       3.24149124      22.29206777        3      -0.01471626      -0.00786086      -0.04438587
Pt       5.61442762       3.24149124      22.29206789        3      -0.01523708      -0.00776084      -0.04482494
Pt       8.42164156       3.24149128      22.29206809        3      -0.01526893      -0.00834635      -0.04216080
Pt       4.21082092       5.67260996      22.29206799        3      -0.01482972      -0.00832689      -0.04771347
Pt       7.01803487       5.67261037      22.29206782        3      -0.01565504      -0.00827899      -0.04544844
Pt       9.82524820       5.67261064      22.29206809        3      -0.01474599      -0.00881107      -0.04456383
Pt      -0.00000052       1.62074570      24.58417379        2       0.04055622       0.02587679       0.04219108
Pt       2.80721442       1.62074548      24.58417394        2       0.03643955       0.02563250       0.04192771
Pt       5.61442780       1.62074537      24.58417373        2       0.03734992       0.02246030       0.04302558
Pt       1.40360637       4.05186438      24.58417386        2       0.03871178       0.02339254       0.03804899
Pt       4.21082089       4.05186400      24.58417379        2       0.03836656       0.01703469       0.03491516
Pt       7.01803504       4.05186405      24.58417405        2       0.04164876       0.02260728       0.04197665
Pt       2.80721281       6.48298343      24.58417366        2       0.03300694       0.02491447       0.03446370
Pt       5.61442797       6.48298326      24.58417386        2       0.04069758       0.02469509       0.03910694
Pt       8.42164223       6.48298340      24.58417377        2       0.03979541       0.02013386       0.04202288
Pt       0.05204554       0.03118132      26.91844579        1      -0.00452513      -0.00545057      -0.00787296
Pt       2.86183372       0.03204733      26.91776778        1      -0.03132329      -0.01822026      -0.00107886
Pt       5.66710527       0.03201270      26.92064119        1      -0.01653047      -0.01411513      -0.01413828
Pt       1.45742323       2.46588923      26.91939372        1      -0.01826435      -0.03261896      -0.01227102
Pt       4.26408502       2.46142097      26.92074485        1      -0.01867536      -0.00704617      -0.01443879
Pt       7.07150494       2.46241310      26.91879532        1      -0.01797498      -0.01070974      -0.00870659
Pt       2.86417394       4.89575415      26.91910499        1      -0.03230450      -0.01959634      -0.00653438
Pt       5.66726402       4.89193681      26.91869439        1      -0.00792575      -0.00069866      -0.00902621
Pt       8.47821752       4.89240006      26.91933540        1      -0.03623354      -0.00081549      -0.01207972
C        4.67186127       5.93993726      32.14243847        0      -0.02745782      -0.01607736       0.02287883
O        5.08540428       6.18709960      33.22062786        0       0.02944424       0.01735653       0.01983760
O        4.25289812       5.68934750      31.06810756        0      -0.00150167      -0.00076255      -0.04519971
