39
Lattice="8.421641763931781 0.0 0.0 4.2108208819658905 7.293355709136913 0.0 0.0 0.0 46.87624170604845" Properties=species:S:1:pos:R:3:tags:I:1:forces:R:3 charge=0 spin=0 energy=-209.3623809728523 free_energy=-209.3623809728523 stress="0.010582896880805492 6.334025965770707e-05 -1.6816968127386644e-05 6.334025965770707e-05 0.010477766394615173 -1.4408062270376831e-05 -1.6816968127386644e-05 -1.4408062270376831e-05 -5.043784040026367e-05" pbc="T T T"
Pt      -0.00000001       0.00000022      19.95723425        4      -0.00334027      -0.00250363       0.01521961
Pt       2.80721397      -0.00000009      19.95723437        4      -0.00311188      -0.00240301       0.01532665
Pt       5.61442779      -0.00000006      19.95723442        4      -0.00309027      -0.00270736       0.01529444
Pt       1.40360720       2.43111836      19.95723428        4      -0.00303730      -0.00251659       0.01535880
Pt       4.21082081       2.43111834      19.95723435        4      -0.00319417      -0.00230958       0.01532786
Pt       7.01803481       2.43111842      19.95723424        4      -0.00356590      -0.00253285       0.01526841
Pt       2.80721405       4.86223723      19.95723396        4      -0.00309927      -0.00263665       0.01504699
Pt       5.61442805       4.86223729      19.95723414        4      -0.00308643      -0.00241446       0.01515914
Pt       8.42164141       4.86223719      19.95723428        4      -0.00295288      -0.00226098       0.01532462
Pt       1.40360726       0.81037260      22.29206791        3      -0.01501700      -0.00874195      -0.04538841
Pt       4.21082130       0.81037249      22.29206785        3      -0.01467084      -0.00834556      -0.04671847
Pt       7.01803472       0.81037257      22.29206783        3      -0.01468065      -0.00923575      -0.04517101
Pt       2.80721450       3.24149124      22.29206777        3      -0.01471569      -0.00786035      -0.04438712
Pt       5.61442762       3.24149124      22.29206789        3      -0.01523766      -0.00776097      -0.04482248
Pt       8.42164156       3.24149128      22.29206809        3      -0.01526845      -0.00834609      -0.04215642
Pt       4.21082092       5.67260996      22.29206799        3      -0.01482986      -0.00832733      -0.04771306
Pt       7.01803487       5.67261037      22.29206782        3      -0.01565490      -0.00827850      -0.04544911
Pt       9.82524820       5.67261064      22.29206809        3      -0.01474556      -0.00881053      -0.04456472
Pt      -0.00000052       1.62074570      24.58417379        2       0.04055443       0.02588352       0.04218553
Pt       2.80721442       1.62074548      24.58417394        2       0.03643815       0.02563358       0.04192853
Pt       5.61442780       1.62074537      24.58417373        2       0.03735229       0.02246152       0.04301793
Pt       1.40360637       4.05186438      24.58417386        2       0.03870431       0.02338604       0.03805057
Pt       4.21082089       4.05186400      24.58417379        2       0.03836798       0.01703803       0.03490831
Pt       7.01803504       4.05186405      24.58417405        2       0.04165179       0.02260128       0.04196528
Pt       2.80721281       6.48298343      24.58417366        2       0.03301016       0.02491393       0.03445858
Pt       5.61442797       6.48298326      24.58417386        2       0.04069706       0.02469557       0.03910457
Pt       8.42164223       6.48298340      24.58417377        2       0.03979624       0.02013395       0.04202095
Pt       0.05204634       0.03118513      26.91844303        1      -0.00453070      -0.00548304      -0.00786840
Pt       2.86183453       0.03204754      26.91776793        1      -0.03132759      -0.01822059      -0.00106982
Pt       5.66710755       0.03201326      26.92063839        1      -0.01654363      -0.01412468      -0.01413109
Pt       1.45742167       2.46588562      26.91939453        1      -0.01825605      -0.03260029      -0.01228018
Pt       4.26408675       2.46142282      26.92074279        1      -0.01869159      -0.00705697      -0.01442943
Pt       7.07150426       2.46241301      26.91879574        1      -0.01796772      -0.01071265      -0.00870905
Pt       2.86416922       4.89575113      26.91910209        1      -0.03228205      -0.01957848      -0.00652742
Pt       5.66726771       4.89193554      26.91869141        1      -0.00795891      -0.00068368      -0.00902035
Pt       8.47821282       4.89240013      26.91933583        1      -0.03620403      -0.00081418      -0.01207895
C        4.67186057       5.93993726      32.14229816        0      -0.02645627      -0.01547880       0.02502155
O        5.08540594       6.18710064      33.22050723        0       0.02878891       0.01696465       0.01835093
O        4.25292795       5.68936532      31.06796442        0      -0.00184370      -0.00096632      -0.04585390
