39
Lattice="8.421641763931781 0.0 0.0 4.2108208819658905 7.293355709136913 0.0 0.0 0.0 46.87624170604845" Properties=species:S:1:pos:R:3:tags:I:1:forces:R:3 charge=0 spin=0 energy=-209.36238288020093 free_energy=-209.36238288020093 stress="0.010582846589386463 6.331495387712494e-05 -1.696973413345404e-05 6.331495387712494e-05 0.010477752424776554 -1.4498162272502668e-05 -1.696973413345404e-05 -1.4498162272502668e-05 -5.0789807573892176e-05" pbc="T T T"
Pt      -0.00000001       0.00000022      19.95723425        4      -0.00334023      -0.00250358       0.01521966
Pt       2.80721397      -0.00000009      19.95723437        4      -0.00311222      -0.00240294       0.01532631
Pt       5.61442779      -0.00000006      19.95723442        4      -0.00309032      -0.00270754       0.01529406
Pt       1.40360720       2.43111836      19.95723428        4      -0.00303729      -0.00251697       0.01535857
Pt       4.21082081       2.43111834      19.95723435        4      -0.00319456      -0.00230958       0.01532761
Pt       7.01803481       2.43111842      19.95723424        4      -0.00356616      -0.00253311       0.01526830
Pt       2.80721405       4.86223723      19.95723396        4      -0.00309941      -0.00263681       0.01504678
Pt       5.61442805       4.86223729      19.95723414        4      -0.00308649      -0.00241440       0.01515910
Pt       8.42164141       4.86223719      19.95723428        4      -0.00295319      -0.00226097       0.01532447
Pt       1.40360726       0.81037260      22.29206791        3      -0.01501828      -0.00874281      -0.04538714
Pt       4.21082130       0.81037249      22.29206785        3      -0.01467221      -0.00834661      -0.04671842
Pt       7.01803472       0.81037257      22.29206783        3      -0.01468141      -0.00923673      -0.04517126
Pt       2.80721450       3.24149124      22.29206777        3      -0.01471659      -0.00786131      -0.04438561
Pt       5.61442762       3.24149124      22.29206789        3      -0.01523850      -0.00776126      -0.04482333
Pt       8.42164156       3.24149128      22.29206809        3      -0.01526942      -0.00834651      -0.04215768
Pt       4.21082092       5.67260996      22.29206799        3      -0.01483079      -0.00832748      -0.04771353
Pt       7.01803487       5.67261037      22.29206782        3      -0.01565591      -0.00827952      -0.04544830
Pt       9.82524820       5.67261064      22.29206809        3      -0.01474644      -0.00881136      -0.04456452
Pt      -0.00000052       1.62074570      24.58417379        2       0.04055701       0.02588116       0.04219288
Pt       2.80721442       1.62074548      24.58417394        2       0.03644001       0.02563574       0.04192567
Pt       5.61442780       1.62074537      24.58417373        2       0.03735396       0.02246509       0.04302365
Pt       1.40360637       4.05186438      24.58417386        2       0.03870883       0.02338612       0.03804033
Pt       4.21082089       4.05186400      24.58417379        2       0.03837220       0.01703653       0.03491370
Pt       7.01803504       4.05186405      24.58417405        2       0.04165027       0.02260431       0.04197269
Pt       2.80721281       6.48298343      24.58417366        2       0.03301336       0.02491765       0.03445946
Pt       5.61442797       6.48298326      24.58417386        2       0.04069972       0.02469744       0.03910790
Pt       8.42164223       6.48298340      24.58417377        2       0.03979640       0.02013583       0.04201350
Pt       0.05205016       0.03118467      26.91844576        1      -0.00453464      -0.00546589      -0.00787839
Pt       2.86183944       0.03205045      26.91776796        1      -0.03134844      -0.01823229      -0.00105784
Pt       5.66710877       0.03201428      26.92063888        1      -0.01652677      -0.01411392      -0.01412865
Pt       1.45742577       2.46588930      26.91939478        1      -0.01826406      -0.03261748      -0.01227671
Pt       4.26408829       2.46142324      26.92074350        1      -0.01867516      -0.00704450      -0.01443736
Pt       7.07150791       2.46241482      26.91879622        1      -0.01797545      -0.01071183      -0.00871274
Pt       2.86417156       4.89575271      26.91910222        1      -0.03227279      -0.01957988      -0.00652392
Pt       5.66726869       4.89193916      26.91869318        1      -0.00794345      -0.00069858      -0.00903189
Pt       8.47821873       4.89240227      26.91933492        1      -0.03623570      -0.00081812      -0.01206863
C        4.67187734       5.93994690      32.14227631        0      -0.02797001      -0.01638302       0.02162987
O        5.08539504       6.18709417      33.22047123        0       0.02973425       0.01752917       0.02053735
O        4.25292890       5.68936563      31.06793230        0      -0.00126984      -0.00062392      -0.04465619
