39
Lattice="8.421641763931781 0.0 0.0 4.2108208819658905 7.293355709136913 0.0 0.0 0.0 46.87624170604845" Properties=species:S:1:pos:R:3:tags:I:1:forces:R:3 charge=0 spin=0 energy=-209.363899222364 free_energy=-209.363899222364 stress="0.010572629980742931 5.173140380065888e-05 -1.061269358615391e-06 5.173140380065888e-05 0.010493750683963299 -4.1256680560763925e-06 -1.061269358615391e-06 -4.1256680560763925e-06 -2.0965740986866876e-05" pbc="T T T"
Pt      -0.00000001       0.00000022      19.95723425        4      -0.00225982      -0.00201674       0.01511387
Pt       2.80721397      -0.00000009      19.95723437        4      -0.00262316      -0.00189716       0.01531684
Pt       5.61442779      -0.00000006      19.95723442        4      -0.00221364      -0.00160415       0.01541060
Pt       1.40360720       2.43111836      19.95723428        4      -0.00248509      -0.00195565       0.01511872
Pt       4.21082081       2.43111834      19.95723435        4      -0.00209859      -0.00185492       0.01546624
Pt       7.01803481       2.43111842      19.95723424        4      -0.00239841      -0.00177757       0.01578573
Pt       2.80721405       4.86223723      19.95723396        4      -0.00201084      -0.00172389       0.01537506
Pt       5.61442805       4.86223729      19.95723414        4      -0.00232544      -0.00146115       0.01504807
Pt       8.42164141       4.86223719      19.95723428        4      -0.00235927      -0.00173300       0.01513459
Pt       1.40360726       0.81037260      22.29206791        3      -0.01097254      -0.00611080      -0.04553499
Pt       4.21082130       0.81037249      22.29206785        3      -0.01154705      -0.00617384      -0.04667317
Pt       7.01803472       0.81037257      22.29206783        3      -0.01107886      -0.00620215      -0.04448356
Pt       2.80721450       3.24149124      22.29206777        3      -0.01105205      -0.00549519      -0.04610448
Pt       5.61442762       3.24149124      22.29206789        3      -0.01088247      -0.00579131      -0.04472956
Pt       8.42164156       3.24149128      22.29206809        3      -0.01093086      -0.00586995      -0.04230554
Pt       4.21082092       5.67260996      22.29206799        3      -0.01118279      -0.00610497      -0.04445177
Pt       7.01803487       5.67261037      22.29206782        3      -0.01142841      -0.00565030      -0.04576277
Pt       9.82524820       5.67261064      22.29206809        3      -0.01119453      -0.00637191      -0.04616739
Pt      -0.00000052       1.62074570      24.58417379        2       0.02157564       0.01648280       0.05011859
Pt       2.80721442       1.62074548      24.58417394        2       0.02973505       0.01178554       0.03798306
Pt       5.61442780       1.62074537      24.58417373        2       0.03710771       0.02142243       0.04424147
Pt       1.40360637       4.05186438      24.58417386        2       0.02946073       0.01718091       0.04345779
Pt       4.21082089       4.05186400      24.58417379        2       0.03098000       0.02177269       0.03835464
Pt       7.01803504       4.05186405      24.58417405        2       0.02498374       0.00972103       0.04953044
Pt       2.80721281       6.48298343      24.58417366        2       0.03441176       0.01557877       0.03748530
Pt       5.61442797       6.48298326      24.58417386        2       0.02738013       0.01604711       0.04714651
Pt       8.42164223       6.48298340      24.58417377        2       0.02578244       0.01959446       0.03828748
Pt       0.04034074       0.02315567      26.92228903        1      -0.01649450      -0.01198606      -0.02609796
Pt       2.84659773       0.02167515      26.92105170        1      -0.01340139      -0.00624980      -0.01512277
Pt       5.65614240       0.02169626      26.91523848        1      -0.02472477       0.00006980       0.00431019
Pt       1.44339242       2.45137546      26.91666381        1      -0.01624830       0.00501437      -0.00179007
Pt       4.25046755       2.45536230      26.91512183        1      -0.01067544      -0.01989323       0.00443082
Pt       7.05964884       2.45488840      26.92465024        1      -0.02460553      -0.01499375      -0.03823855
Pt       2.84738075       4.88552937      26.92006367        1      -0.01503854      -0.01051934      -0.01429494
Pt       5.65430085       4.88465077      26.92235919        1      -0.01706792      -0.00715095      -0.02678400
Pt       8.45923709       4.88568778      26.91663519        1      -0.00255520      -0.01423911      -0.00158852
C        4.88455471       6.05769868      32.21775535        0       0.01343303       0.01028697      -0.04683974
O        4.92869363       6.08954030      33.39724463        0      -0.00537447      -0.00423134       0.04689673
O        4.84259587       6.02751650      31.03842531        0      -0.00762039      -0.00589856      -0.00304282
