39
Lattice="8.421641763931781 0.0 0.0 4.2108208819658905 7.293355709136913 0.0 0.0 0.0 46.87624170604845" Properties=species:S:1:pos:R:3:tags:I:1:forces:R:3 charge=0 spin=0 energy=-209.3623819265266 free_energy=-209.3623819265266 stress="0.010582862421870232 6.331486656563357e-05 -1.6911364582483657e-05 6.331486656563357e-05 0.01047775149345398 -1.4465276763075963e-05 -1.6911364582483657e-05 -1.4465276763075963e-05 -5.0707174523267895e-05" pbc="T T T"
Pt      -0.00000001       0.00000022      19.95723425        4      -0.00333994      -0.00250387       0.01521951
Pt       2.80721397      -0.00000009      19.95723437        4      -0.00311235      -0.00240321       0.01532651
Pt       5.61442779      -0.00000006      19.95723442        4      -0.00309030      -0.00270817       0.01529411
Pt       1.40360720       2.43111836      19.95723428        4      -0.00303671      -0.00251715       0.01535869
Pt       4.21082081       2.43111834      19.95723435        4      -0.00319476      -0.00230945       0.01532780
Pt       7.01803481       2.43111842      19.95723424        4      -0.00356663      -0.00253320       0.01526862
Pt       2.80721405       4.86223723      19.95723396        4      -0.00309923      -0.00263649       0.01504676
Pt       5.61442805       4.86223729      19.95723414        4      -0.00308655      -0.00241438       0.01515918
Pt       8.42164141       4.86223719      19.95723428        4      -0.00295321      -0.00226027       0.01532438
Pt       1.40360726       0.81037260      22.29206791        3      -0.01501880      -0.00874143      -0.04538575
Pt       4.21082130       0.81037249      22.29206785        3      -0.01467173      -0.00834613      -0.04671662
Pt       7.01803472       0.81037257      22.29206783        3      -0.01468090      -0.00923554      -0.04517095
Pt       2.80721450       3.24149124      22.29206777        3      -0.01471744      -0.00786079      -0.04438594
Pt       5.61442762       3.24149124      22.29206789        3      -0.01523716      -0.00776160      -0.04482375
Pt       8.42164156       3.24149128      22.29206809        3      -0.01526946      -0.00834678      -0.04216532
Pt       4.21082092       5.67260996      22.29206799        3      -0.01483035      -0.00832774      -0.04771189
Pt       7.01803487       5.67261037      22.29206782        3      -0.01565520      -0.00828054      -0.04544733
Pt       9.82524820       5.67261064      22.29206809        3      -0.01474645      -0.00881192      -0.04456480
Pt      -0.00000052       1.62074570      24.58417379        2       0.04055863       0.02586460       0.04219888
Pt       2.80721442       1.62074548      24.58417394        2       0.03644332       0.02562684       0.04191846
Pt       5.61442780       1.62074537      24.58417373        2       0.03735213       0.02246199       0.04301966
Pt       1.40360637       4.05186438      24.58417386        2       0.03871985       0.02339583       0.03803712
Pt       4.21082089       4.05186400      24.58417379        2       0.03837078       0.01703885       0.03491812
Pt       7.01803504       4.05186405      24.58417405        2       0.04163887       0.02261332       0.04197661
Pt       2.80721281       6.48298343      24.58417366        2       0.03301331       0.02491766       0.03446865
Pt       5.61442797       6.48298326      24.58417386        2       0.04069698       0.02469827       0.03911104
Pt       8.42164223       6.48298340      24.58417377        2       0.03979287       0.02014164       0.04201006
Pt       0.05204980       0.03117849      26.91845107        1      -0.00454204      -0.00541853      -0.00789718
Pt       2.86183525       0.03204843      26.91776987        1      -0.03132152      -0.01821530      -0.00108475
Pt       5.66710528       0.03201375      26.92063895        1      -0.01651042      -0.01410760      -0.01413073
Pt       1.45742800       2.46589084      26.91938916        1      -0.01828296      -0.03262293      -0.01225463
Pt       4.26408578       2.46142114      26.92074226        1      -0.01866247      -0.00703507      -0.01443096
Pt       7.07150835       2.46241560      26.91879071        1      -0.01798103      -0.01071786      -0.00869722
Pt       2.86417757       4.89575670      26.91910716        1      -0.03231133      -0.01959894      -0.00653949
Pt       5.66726334       4.89194275      26.91869782        1      -0.00791064      -0.00073011      -0.00904156
Pt       8.47822045       4.89240358      26.91933058        1      -0.03623978      -0.00082953      -0.01205491
C        4.67186862       5.93994224      32.14244429        0      -0.02833113      -0.01660381       0.02091328
O        5.08540143       6.18709763      33.22062771        0       0.02985980       0.01760676       0.02077764
O        4.25289311       5.68934503      31.06810696        0      -0.00104588      -0.00048709      -0.04417172
