39
Lattice="8.421641763931781 0.0 0.0 4.2108208819658905 7.293355709136913 0.0 0.0 0.0 46.87624170604845" Properties=species:S:1:pos:R:3:tags:I:1:forces:R:3 charge=0 spin=0 energy=-209.3639049444099 free_energy=-209.3639049444099 stress="0.010572629980742931 5.1724757213378325e-05 -1.0591925274638925e-06 5.1724757213378325e-05 0.010493754409253597 -4.123510279896436e-06 -1.0591925274638925e-06 -4.123510279896436e-06 -2.0761335690622218e-05" pbc="T T T"
Pt      -0.00000001       0.00000022      19.95723425        4      -0.00225973      -0.00201619       0.01511391
Pt       2.80721397      -0.00000009      19.95723437        4      -0.00262266      -0.00189699       0.01531728
Pt       5.61442779      -0.00000006      19.95723442        4      -0.00221294      -0.00160444       0.01541077
Pt       1.40360720       2.43111836      19.95723428        4      -0.00248400      -0.00195581       0.01511906
Pt       4.21082081       2.43111834      19.95723435        4      -0.00209861      -0.00185391       0.01546662
Pt       7.01803481       2.43111842      19.95723424        4      -0.00239847      -0.00177735       0.01578535
Pt       2.80721405       4.86223723      19.95723396        4      -0.00201033      -0.00172366       0.01537530
Pt       5.61442805       4.86223729      19.95723414        4      -0.00232518      -0.00146116       0.01504826
Pt       8.42164141       4.86223719      19.95723428        4      -0.00235903      -0.00173195       0.01513495
Pt       1.40360726       0.81037260      22.29206791        3      -0.01097180      -0.00610964      -0.04553234
Pt       4.21082130       0.81037249      22.29206785        3      -0.01154558      -0.00617299      -0.04667303
Pt       7.01803472       0.81037257      22.29206783        3      -0.01107667      -0.00620118      -0.04448370
Pt       2.80721450       3.24149124      22.29206777        3      -0.01105039      -0.00549423      -0.04610240
Pt       5.61442762       3.24149124      22.29206789        3      -0.01088024      -0.00579047      -0.04472911
Pt       8.42164156       3.24149128      22.29206809        3      -0.01092909      -0.00586925      -0.04231083
Pt       4.21082092       5.67260996      22.29206799        3      -0.01118089      -0.00610407      -0.04445353
Pt       7.01803487       5.67261037      22.29206782        3      -0.01142649      -0.00564975      -0.04575982
Pt       9.82524820       5.67261064      22.29206809        3      -0.01119289      -0.00637156      -0.04616599
Pt      -0.00000052       1.62074570      24.58417379        2       0.02158421       0.01646234       0.05010747
Pt       2.80721442       1.62074548      24.58417394        2       0.02973092       0.01177939       0.03800697
Pt       5.61442780       1.62074537      24.58417373        2       0.03709184       0.02141616       0.04421045
Pt       1.40360637       4.05186438      24.58417386        2       0.02946833       0.01718584       0.04344855
Pt       4.21082089       4.05186400      24.58417379        2       0.03097359       0.02176710       0.03836431
Pt       7.01803504       4.05186405      24.58417405        2       0.02497005       0.00973816       0.04951848
Pt       2.80721281       6.48298343      24.58417366        2       0.03440438       0.01557340       0.03749349
Pt       5.61442797       6.48298326      24.58417386        2       0.02738111       0.01604802       0.04715608
Pt       8.42164223       6.48298340      24.58417377        2       0.02577362       0.01959335       0.03830957
Pt       0.04033405       0.02314567      26.92229192        1      -0.01647908      -0.01194685      -0.02611995
Pt       2.84658987       0.02167100      26.92105623        1      -0.01339212      -0.00624486      -0.01515424
Pt       5.65613664       0.02170010      26.91523841        1      -0.02473705       0.00001221       0.00430970
Pt       1.44338091       2.45137837      26.91666217        1      -0.01619882       0.00497077      -0.00178755
Pt       4.25046842       2.45535597      26.91512242        1      -0.01073200      -0.01987608       0.00442378
Pt       7.05964086       2.45488379      26.92463626        1      -0.02459330      -0.01498882      -0.03817106
Pt       2.84737799       4.88552772      26.92006618        1      -0.01506525      -0.01053196      -0.01431690
Pt       5.65428942       4.88465013      26.92236294        1      -0.01703119      -0.00715838      -0.02680482
Pt       8.45923367       4.88567695      26.91663345        1      -0.00256621      -0.01417539      -0.00158536
C        4.88455284       6.05769675      32.21754233        0       0.01355802       0.01037786      -0.04590879
O        4.92869518       6.08954134      33.39703759        0      -0.00544475      -0.00428252       0.04617561
O        4.84260519       6.02752218      31.03821452        0      -0.00767132      -0.00593535      -0.00323663
