39
Lattice="8.421641763931781 0.0 0.0 4.2108208819658905 7.293355709136913 0.0 0.0 0.0 46.87624170604845" Properties=species:S:1:pos:R:3:tags:I:1:forces:R:3 charge=0 spin=0 energy=-209.3712520513435 free_energy=-209.3712520513435 stress="0.010509240441024303 8.486553269904107e-06 -9.354914254799951e-06 8.486553269904107e-06 0.010492155328392982 -7.725707291683648e-06 -9.354914254799951e-06 -7.725707291683648e-06 -4.645741864806041e-05" pbc="T T T"
Pt      -0.00000001       0.00000022      19.95723425        4      -0.00069861      -0.00036156       0.01525742
Pt       2.80721397      -0.00000009      19.95723437        4      -0.00037358      -0.00021624       0.01544720
Pt       5.61442779      -0.00000006      19.95723442        4      -0.00042862      -0.00070902       0.01530874
Pt       1.40360720       2.43111836      19.95723428        4      -0.00009198      -0.00045305       0.01555895
Pt       4.21082081       2.43111834      19.95723435        4      -0.00060943      -0.00019264       0.01531370
Pt       7.01803481       2.43111842      19.95723424        4      -0.00101299      -0.00045508       0.01524801
Pt       2.80721405       4.86223723      19.95723396        4      -0.00027569      -0.00048175       0.01504165
Pt       5.61442805       4.86223729      19.95723414        4      -0.00035981      -0.00038247       0.01518830
Pt       8.42164141       4.86223719      19.95723428        4      -0.00023438       0.00012315       0.01545560
Pt       1.40360726       0.81037260      22.29206791        3      -0.00219199      -0.00151504      -0.04550952
Pt       4.21082130       0.81037249      22.29206785        3      -0.00167015      -0.00137896      -0.04616095
Pt       7.01803472       0.81037257      22.29206783        3      -0.00157421      -0.00228051      -0.04514783
Pt       2.80721450       3.24149124      22.29206777        3      -0.00150976      -0.00059956      -0.04328829
Pt       5.61442762       3.24149124      22.29206789        3      -0.00227783      -0.00049508      -0.04460504
Pt       8.42164156       3.24149128      22.29206809        3      -0.00224258      -0.00125912      -0.04248109
Pt       4.21082092       5.67260996      22.29206799        3      -0.00157524      -0.00095948      -0.04887478
Pt       7.01803487       5.67261037      22.29206782        3      -0.00282594      -0.00134378      -0.04564099
Pt       9.82524820       5.67261064      22.29206809        3      -0.00161590      -0.00176829      -0.04354349
Pt      -0.00000052       1.62074570      24.58417379        2       0.00676117       0.00894735       0.04205314
Pt       2.80721442       1.62074548      24.58417394        2       0.00471802       0.00711412       0.04110973
Pt       5.61442780       1.62074537      24.58417373        2       0.00370901       0.00280705       0.04824902
Pt       1.40360637       4.05186438      24.58417386        2       0.00682946       0.00448715       0.03442196
Pt       4.21082089       4.05186400      24.58417379        2       0.00081443      -0.00768169       0.03249419
Pt       7.01803504       4.05186405      24.58417405        2       0.01093625       0.00135737       0.04294242
Pt       2.80721281       6.48298343      24.58417366        2      -0.00666548       0.00456220       0.03288643
Pt       5.61442797       6.48298326      24.58417386        2       0.01028270       0.00596159       0.02691330
Pt       8.42164223       6.48298340      24.58417377        2       0.00886553       0.00199738       0.04046915
Pt       0.00489142       0.00160031      26.91389420        1       0.00941618       0.02257985       0.00617085
Pt       2.81413341       0.00423155      26.91509174        1      -0.01160516      -0.00506427       0.00758094
Pt       5.61859268       0.00564896      26.92161214        1       0.00959373      -0.00379792      -0.02285401
Pt       1.41160677       2.44066824      26.91785089        1      -0.00833693      -0.03359069      -0.01126341
Pt       4.21637046       2.43262342      26.92150099        1       0.00452866       0.00991939      -0.02236393
Pt       7.02553449       2.43522934      26.91799557        1      -0.00521740      -0.00044134      -0.01386907
Pt       2.81686679       4.86860537      26.91915770        1      -0.01675938      -0.01147572      -0.01384506
Pt       5.61803959       4.86457348      26.91412159        1       0.02454467       0.00151852       0.00477874
Pt       8.43364868       4.86617772      26.91787835        1      -0.03339655       0.00370387      -0.01131748
C        4.58283879       5.90333865      31.93934369        0       0.01095076      -0.02077486      -0.01079063
O        5.20369240       6.25970450      32.87879893        0       0.00262853       0.01493501       0.00752555
O        3.96382270       5.54340135      31.00087252        0      -0.01102936       0.00766419       0.00614095
