39
Lattice="8.421641763931781 0.0 0.0 4.2108208819658905 7.293355709136913 0.0 0.0 0.0 46.87624170604845" Properties=species:S:1:pos:R:3:tags:I:1:forces:R:3 charge=0 spin=0 energy=-209.3645496282478 free_energy=-209.3645496282478 stress="0.010537523776292801 5.034271453041583e-05 5.079646712147223e-07 5.034271453041583e-05 0.010461046360433102 -2.8778647447325056e-06 5.079646712147223e-07 -2.8778647447325056e-06 -6.573974678758532e-05" pbc="T T T"
Pt      -0.00000001       0.00000022      19.95723425        4      -0.00222645      -0.00191296       0.01511031
Pt       2.80721397      -0.00000009      19.95723437        4      -0.00245318      -0.00176598       0.01534434
Pt       5.61442779      -0.00000006      19.95723442        4      -0.00208032      -0.00171987       0.01539832
Pt       1.40360720       2.43111836      19.95723428        4      -0.00217565      -0.00192100       0.01515392
Pt       4.21082081       2.43111834      19.95723435        4      -0.00212633      -0.00171895       0.01546467
Pt       7.01803481       2.43111842      19.95723424        4      -0.00237398      -0.00174372       0.01571321
Pt       2.80721405       4.86223723      19.95723396        4      -0.00188219      -0.00164476       0.01531654
Pt       5.61442805       4.86223729      19.95723414        4      -0.00226038      -0.00144716       0.01505288
Pt       8.42164141       4.86223719      19.95723428        4      -0.00223736      -0.00143023       0.01516037
Pt       1.40360726       0.81037260      22.29206791        3      -0.01090158      -0.00583451      -0.04466742
Pt       4.21082130       0.81037249      22.29206785        3      -0.01083485      -0.00576723      -0.04570660
Pt       7.01803472       0.81037257      22.29206783        3      -0.01042273      -0.00581084      -0.04493012
Pt       2.80721450       3.24149124      22.29206777        3      -0.01055774      -0.00493653      -0.04523525
Pt       5.61442762       3.24149124      22.29206789        3      -0.01030172      -0.00549117      -0.04515551
Pt       8.42164156       3.24149128      22.29206809        3      -0.01064326      -0.00574316      -0.04331464
Pt       4.21082092       5.67260996      22.29206799        3      -0.01071250      -0.00591895      -0.04515072
Pt       7.01803487       5.67261037      22.29206782        3      -0.01099986      -0.00573664      -0.04490095
Pt       9.82524820       5.67261064      22.29206809        3      -0.01044925      -0.00612625      -0.04527506
Pt      -0.00000052       1.62074570      24.58417379        2       0.02601433       0.01264077       0.03603641
Pt       2.80721442       1.62074548      24.58417394        2       0.02929230       0.00992069       0.03609329
Pt       5.61442780       1.62074537      24.58417373        2       0.03066256       0.01753505       0.03020776
Pt       1.40360637       4.05186438      24.58417386        2       0.03108521       0.01823962       0.03496811
Pt       4.21082089       4.05186400      24.58417379        2       0.02722622       0.01912669       0.03282224
Pt       7.01803504       4.05186405      24.58417405        2       0.02394916       0.01541346       0.03563434
Pt       2.80721281       6.48298343      24.58417366        2       0.03011880       0.01344828       0.03228751
Pt       5.61442797       6.48298326      24.58417386        2       0.02963643       0.01737475       0.03857397
Pt       8.42164223       6.48298340      24.58417377        2       0.02369699       0.02032004       0.03617924
Pt       0.03810123       0.02045910      26.92000125        1      -0.01219353      -0.00235969      -0.01684461
Pt       2.84456737       0.02067409      26.92121141        1      -0.01198382      -0.00594264      -0.01687311
Pt       5.65396329       0.02177488      26.91483806        1      -0.02556012      -0.00979526       0.00709188
Pt       1.44125269       2.45170295      26.91480775        1      -0.01047963      -0.00409553       0.00545331
Pt       4.24966544       2.45358196      26.91470915        1      -0.02086272      -0.01635220       0.00735668
Pt       7.05717429       2.45339641      26.91764901        1      -0.02046407      -0.01227329      -0.00712610
Pt       2.84615992       4.88467079      26.91999884        1      -0.02013093      -0.01266738      -0.01311184
Pt       5.65100584       4.88415325      26.92006368        1      -0.00706081      -0.00856552      -0.01740279
Pt       8.45852527       4.88390748      26.91478363        1      -0.00799447      -0.00562529       0.00570314
C        4.88399960       6.05725078      32.18254594        0       0.03349468       0.02552547      -0.01930030
O        4.92901754       6.08978916      33.36232087        0      -0.01597974      -0.01227006       0.01365450
O        4.84414191       6.02864036      31.00302963        0      -0.01682750      -0.01292809       0.00521814
