39
Lattice="8.421641763931781 0.0 0.0 4.2108208819658905 7.293355709136913 0.0 0.0 0.0 46.87624170604845" Properties=species:S:1:pos:R:3:tags:I:1:forces:R:3 charge=0 spin=0 energy=-209.36671065424878 free_energy=-209.36671065424878 stress="0.010482697747647762 1.5020231330709066e-05 -3.6089356854063226e-06 1.5020231330709066e-05 0.010459759272634983 -4.352415999164805e-06 -3.6089356854063226e-06 -4.352415999164805e-06 -0.0001080656802514568" pbc="T T T"
Pt      -0.00000001       0.00000022      19.95723425        4      -0.00073254      -0.00053107       0.01507918
Pt       2.80721397      -0.00000009      19.95723437        4      -0.00056827      -0.00033208       0.01509404
Pt       5.61442779      -0.00000006      19.95723442        4      -0.00076136      -0.00056242       0.01528980
Pt       1.40360720       2.43111836      19.95723428        4      -0.00100553      -0.00030948       0.01518367
Pt       4.21082081       2.43111834      19.95723435        4      -0.00066660      -0.00063212       0.01533745
Pt       7.01803481       2.43111842      19.95723424        4      -0.00072711      -0.00037117       0.01529951
Pt       2.80721405       4.86223723      19.95723396        4      -0.00080403      -0.00080721       0.01509245
Pt       5.61442805       4.86223729      19.95723414        4      -0.00050638      -0.00034119       0.01507795
Pt       8.42164141       4.86223719      19.95723428        4      -0.00048043      -0.00066123       0.01522964
Pt       1.40360726       0.81037260      22.29206791        3      -0.00332839      -0.00246293      -0.04626119
Pt       4.21082130       0.81037249      22.29206785        3      -0.00308949      -0.00147377      -0.04630926
Pt       7.01803472       0.81037257      22.29206783        3      -0.00308408      -0.00238434      -0.04667560
Pt       2.80721450       3.24149124      22.29206777        3      -0.00274558      -0.00138580      -0.04430407
Pt       5.61442762       3.24149124      22.29206789        3      -0.00339551      -0.00138699      -0.04651468
Pt       8.42164156       3.24149128      22.29206809        3      -0.00393063      -0.00205180      -0.03963484
Pt       4.21082092       5.67260996      22.29206799        3      -0.00294374      -0.00157504      -0.04807669
Pt       7.01803487       5.67261037      22.29206782        3      -0.00432239      -0.00131857      -0.04621261
Pt       9.82524820       5.67261064      22.29206809        3      -0.00313249      -0.00151832      -0.04439585
Pt      -0.00000052       1.62074570      24.58417379        2       0.00974063       0.01456565       0.03098735
Pt       2.80721442       1.62074548      24.58417394        2       0.00831442       0.01211044       0.02872061
Pt       5.61442780       1.62074537      24.58417373        2       0.00686850       0.00333644       0.04340585
Pt       1.40360637       4.05186438      24.58417386        2       0.00555344       0.00354465       0.03583702
Pt       4.21082089       4.05186400      24.58417379        2       0.00707452      -0.00048864       0.03259527
Pt       7.01803504       4.05186405      24.58417405        2       0.01791400       0.00027384       0.03099140
Pt       2.80721281       6.48298343      24.58417366        2       0.00283928       0.00438248       0.03210601
Pt       5.61442797       6.48298326      24.58417386        2       0.00815097       0.00494445       0.02455450
Pt       8.42164223       6.48298340      24.58417377        2       0.01407233       0.00054990       0.02914154
Pt       0.01066363       0.01036442      26.91271064        1       0.00020212      -0.02926002       0.01282399
Pt       2.82084187       0.00790553      26.91234602        1      -0.01834127      -0.01235733       0.01613206
Pt       5.62379618       0.00438291      26.91899199        1       0.00957555       0.00841074      -0.01253368
Pt       1.41629310       2.43855894      26.91804259        1      -0.01225011      -0.00459903      -0.00822814
Pt       4.22016619       2.43657153      26.91914657        1       0.01064564       0.00392245      -0.01296082
Pt       7.02843717       2.43656569      26.91722395        1      -0.00122286      -0.00040966      -0.00676466
Pt       2.81895814       4.86824184      26.91624796        1       0.00506628       0.00455853      -0.00328169
Pt       5.62982059       4.86565801      26.91299718        1      -0.02780001       0.01493341       0.01180425
Pt       8.43492042       4.86898920      26.91823394        1      -0.01033500      -0.00838894      -0.00917247
C        4.78439022       5.99495801      32.43433353        0       0.00101196       0.01235778       0.02467703
O        5.01876597       6.14845834      33.58175766        0       0.00613383      -0.00187976       0.01646934
O        4.54926440       5.84269880      31.28815843        0      -0.00698989      -0.01040151      -0.04560361
