39
Lattice="8.421641763931781 0.0 0.0 4.2108208819658905 7.293355709136913 0.0 0.0 0.0 46.87624170604845" Properties=species:S:1:pos:R:3:tags:I:1:forces:R:3 charge=0 spin=0 energy=-209.3623876485725 free_energy=-209.3623876485725 stress="0.01058292854577303 6.334005593089387e-05 -1.6798465367173776e-05 6.334005593089387e-05 0.010477790609002113 -1.439649349777028e-05 -1.6798465367173776e-05 -1.439649349777028e-05 -5.035270442022011e-05" pbc="T T T"
Pt      -0.00000001       0.00000022      19.95723425        4      -0.00334022      -0.00250372       0.01521961
Pt       2.80721397      -0.00000009      19.95723437        4      -0.00311183      -0.00240300       0.01532644
Pt       5.61442779      -0.00000006      19.95723442        4      -0.00309017      -0.00270773       0.01529421
Pt       1.40360720       2.43111836      19.95723428        4      -0.00303723      -0.00251686       0.01535908
Pt       4.21082081       2.43111834      19.95723435        4      -0.00319437      -0.00230953       0.01532801
Pt       7.01803481       2.43111842      19.95723424        4      -0.00356601      -0.00253305       0.01526841
Pt       2.80721405       4.86223723      19.95723396        4      -0.00309920      -0.00263673       0.01504678
Pt       5.61442805       4.86223729      19.95723414        4      -0.00308650      -0.00241464       0.01515905
Pt       8.42164141       4.86223719      19.95723428        4      -0.00295282      -0.00226087       0.01532460
Pt       1.40360726       0.81037260      22.29206791        3      -0.01501756      -0.00874205      -0.04538818
Pt       4.21082130       0.81037249      22.29206785        3      -0.01467163      -0.00834627      -0.04672000
Pt       7.01803472       0.81037257      22.29206783        3      -0.01468123      -0.00923616      -0.04517137
Pt       2.80721450       3.24149124      22.29206777        3      -0.01471634      -0.00786085      -0.04438554
Pt       5.61442762       3.24149124      22.29206789        3      -0.01523765      -0.00776103      -0.04482371
Pt       8.42164156       3.24149128      22.29206809        3      -0.01526904      -0.00834676      -0.04215745
Pt       4.21082092       5.67260996      22.29206799        3      -0.01483020      -0.00832757      -0.04771334
Pt       7.01803487       5.67261037      22.29206782        3      -0.01565577      -0.00827858      -0.04544955
Pt       9.82524820       5.67261064      22.29206809        3      -0.01474636      -0.00881107      -0.04456364
Pt      -0.00000052       1.62074570      24.58417379        2       0.04055519       0.02588223       0.04219762
Pt       2.80721442       1.62074548      24.58417394        2       0.03643711       0.02563657       0.04193471
Pt       5.61442780       1.62074537      24.58417373        2       0.03735281       0.02246284       0.04302554
Pt       1.40360637       4.05186438      24.58417386        2       0.03870657       0.02338792       0.03805320
Pt       4.21082089       4.05186400      24.58417379        2       0.03836850       0.01703716       0.03491369
Pt       7.01803504       4.05186405      24.58417405        2       0.04165216       0.02260366       0.04197948
Pt       2.80721281       6.48298343      24.58417366        2       0.03300873       0.02491523       0.03446301
Pt       5.61442797       6.48298326      24.58417386        2       0.04069858       0.02469630       0.03911075
Pt       8.42164223       6.48298340      24.58417377        2       0.03979824       0.02013158       0.04202848
Pt       0.05204701       0.03118384      26.91844600        1      -0.00452391      -0.00546283      -0.00787631
Pt       2.86183725       0.03204977      26.91776828        1      -0.03133423      -0.01822634      -0.00107646
Pt       5.66710837       0.03201474      26.92064021        1      -0.01654208      -0.01412569      -0.01413741
Pt       1.45742265       2.46588920      26.91939690        1      -0.01825535      -0.03261752      -0.01228697
Pt       4.26408772       2.46142362      26.92074412        1      -0.01868914      -0.00705402      -0.01443745
Pt       7.07150490       2.46241390      26.91879835        1      -0.01796587      -0.01070916      -0.00871830
Pt       2.86417131       4.89575301      26.91910302        1      -0.03228778      -0.01958407      -0.00653119
Pt       5.66726660       4.89193736      26.91869287        1      -0.00793670      -0.00068949      -0.00902835
Pt       8.47821637       4.89239987      26.91933795        1      -0.03622584      -0.00080571      -0.01208966
C        4.67186653       5.93993997      32.14234095        0      -0.02706731      -0.01583670       0.02384436
O        5.08540385       6.18709827      33.22054649        0       0.02906877       0.01712826       0.01888341
O        4.25291541       5.68935865      31.06800676        0      -0.00151437      -0.00077362      -0.04520564
