39
Lattice="8.421641763931781 0.0 0.0 4.2108208819658905 7.293355709136913 0.0 0.0 0.0 46.87624170604845" Properties=species:S:1:pos:R:3:tags:I:1:forces:R:3 charge=0 spin=0 energy=-209.3639049444099 free_energy=-209.3639049444099 stress="0.010572618804872036 5.1723331125685945e-05 -1.0506016678846208e-06 5.1723331125685945e-05 0.010493747889995575 -4.12222470913548e-06 -1.0506016678846208e-06 -4.12222470913548e-06 -2.08667461265577e-05" pbc="T T T"
Pt      -0.00000001       0.00000022      19.95723425        4      -0.00225990      -0.00201632       0.01511387
Pt       2.80721397      -0.00000009      19.95723437        4      -0.00262293      -0.00189666       0.01531722
Pt       5.61442779      -0.00000006      19.95723442        4      -0.00221289      -0.00160463       0.01541069
Pt       1.40360720       2.43111836      19.95723428        4      -0.00248429      -0.00195574       0.01511904
Pt       4.21082081       2.43111834      19.95723435        4      -0.00209853      -0.00185399       0.01546656
Pt       7.01803481       2.43111842      19.95723424        4      -0.00239848      -0.00177735       0.01578543
Pt       2.80721405       4.86223723      19.95723396        4      -0.00201041      -0.00172358       0.01537513
Pt       5.61442805       4.86223729      19.95723414        4      -0.00232530      -0.00146147       0.01504828
Pt       8.42164141       4.86223719      19.95723428        4      -0.00235883      -0.00173224       0.01513497
Pt       1.40360726       0.81037260      22.29206791        3      -0.01097134      -0.00610989      -0.04553293
Pt       4.21082130       0.81037249      22.29206785        3      -0.01154536      -0.00617295      -0.04667353
Pt       7.01803472       0.81037257      22.29206783        3      -0.01107659      -0.00620130      -0.04448378
Pt       2.80721450       3.24149124      22.29206777        3      -0.01105048      -0.00549389      -0.04610273
Pt       5.61442762       3.24149124      22.29206789        3      -0.01088041      -0.00579054      -0.04472815
Pt       8.42164156       3.24149128      22.29206809        3      -0.01092938      -0.00586953      -0.04230949
Pt       4.21082092       5.67260996      22.29206799        3      -0.01118127      -0.00610411      -0.04445196
Pt       7.01803487       5.67261037      22.29206782        3      -0.01142634      -0.00564993      -0.04576134
Pt       9.82524820       5.67261064      22.29206809        3      -0.01119300      -0.00637173      -0.04616613
Pt      -0.00000052       1.62074570      24.58417379        2       0.02158252       0.01646524       0.05010648
Pt       2.80721442       1.62074548      24.58417394        2       0.02973068       0.01178151       0.03800340
Pt       5.61442780       1.62074537      24.58417373        2       0.03709432       0.02141999       0.04420836
Pt       1.40360637       4.05186438      24.58417386        2       0.02946867       0.01718567       0.04344774
Pt       4.21082089       4.05186400      24.58417379        2       0.03097388       0.02176848       0.03836553
Pt       7.01803504       4.05186405      24.58417405        2       0.02497117       0.00973592       0.04951917
Pt       2.80721281       6.48298343      24.58417366        2       0.03440739       0.01557170       0.03749105
Pt       5.61442797       6.48298326      24.58417386        2       0.02737963       0.01604641       0.04716049
Pt       8.42164223       6.48298340      24.58417377        2       0.02577410       0.01959196       0.03830392
Pt       0.04033372       0.02314818      26.92229187        1      -0.01647222      -0.01196316      -0.02612056
Pt       2.84659118       0.02167172      26.92105568        1      -0.01339410      -0.00624593      -0.01515842
Pt       5.65613742       0.02170028      26.91523827        1      -0.02473773       0.00001220       0.00431962
Pt       1.44338114       2.45137858      26.91666302        1      -0.01619824       0.00497080      -0.00178558
Pt       4.25046895       2.45535630      26.91512242        1      -0.01073088      -0.01987438       0.00442444
Pt       7.05964176       2.45488438      26.92463820        1      -0.02459557      -0.01498834      -0.03818019
Pt       2.84737758       4.88552742      26.92006636        1      -0.01505452      -0.01052809      -0.01431542
Pt       5.65429127       4.88464870      26.92236287        1      -0.01704053      -0.00714582      -0.02680786
Pt       8.45923409       4.88567717      26.91663423        1      -0.00256854      -0.01417559      -0.00158360
C        4.88455309       6.05769691      32.21755783        0       0.01352972       0.01036157      -0.04639539
O        4.92869421       6.08954089      33.39704764        0      -0.00542952      -0.00427283       0.04652184
O        4.84260454       6.02752226      31.03822732        0      -0.00766435      -0.00593138      -0.00308625
