39
Lattice="8.421641763931781 0.0 0.0 4.2108208819658905 7.293355709136913 0.0 0.0 0.0 46.87624170604845" Properties=species:S:1:pos:R:3:tags:I:1:forces:R:3 charge=0 spin=0 energy=-209.36670302485425 free_energy=-209.36670302485425 stress="0.01048335712403059 1.5224722119455691e-05 -3.52594793184835e-06 1.5224722119455691e-05 0.010460108518600464 -4.3109421312692575e-06 -3.52594793184835e-06 -4.3109421312692575e-06 -0.0001069960489985533" pbc="T T T"
Pt      -0.00000001       0.00000022      19.95723425        4      -0.00074234      -0.00053698       0.01508049
Pt       2.80721397      -0.00000009      19.95723437        4      -0.00057812      -0.00033963       0.01509470
Pt       5.61442779      -0.00000006      19.95723442        4      -0.00076681      -0.00057340       0.01529107
Pt       1.40360720       2.43111836      19.95723428        4      -0.00101049      -0.00031892       0.01518511
Pt       4.21082081       2.43111834      19.95723435        4      -0.00067716      -0.00063424       0.01533863
Pt       7.01803481       2.43111842      19.95723424        4      -0.00073750      -0.00037963       0.01529896
Pt       2.80721405       4.86223723      19.95723396        4      -0.00081282      -0.00081388       0.01509116
Pt       5.61442805       4.86223729      19.95723414        4      -0.00051568      -0.00034989       0.01507943
Pt       8.42164141       4.86223719      19.95723428        4      -0.00048938      -0.00066344       0.01523083
Pt       1.40360726       0.81037260      22.29206791        3      -0.00337434      -0.00248378      -0.04625180
Pt       4.21082130       0.81037249      22.29206785        3      -0.00313118      -0.00149795      -0.04631937
Pt       7.01803472       0.81037257      22.29206783        3      -0.00312304      -0.00240501      -0.04666899
Pt       2.80721450       3.24149124      22.29206777        3      -0.00279182      -0.00141001      -0.04429875
Pt       5.61442762       3.24149124      22.29206789        3      -0.00343665      -0.00140963      -0.04650585
Pt       8.42164156       3.24149128      22.29206809        3      -0.00397309      -0.00207500      -0.03967412
Pt       4.21082092       5.67260996      22.29206799        3      -0.00298661      -0.00159980      -0.04807998
Pt       7.01803487       5.67261037      22.29206782        3      -0.00436258      -0.00134545      -0.04620499
Pt       9.82524820       5.67261064      22.29206809        3      -0.00317692      -0.00154582      -0.04438721
Pt      -0.00000052       1.62074570      24.58417379        2       0.00990222       0.01451097       0.03109408
Pt       2.80721442       1.62074548      24.58417394        2       0.00841035       0.01218117       0.02887866
Pt       5.61442780       1.62074537      24.58417373        2       0.00694133       0.00338409       0.04340649
Pt       1.40360637       4.05186438      24.58417386        2       0.00571419       0.00364356       0.03585013
Pt       4.21082089       4.05186400      24.58417379        2       0.00722476      -0.00043408       0.03272922
Pt       7.01803504       4.05186405      24.58417405        2       0.01794170       0.00044269       0.03110901
Pt       2.80721281       6.48298343      24.58417366        2       0.00295531       0.00448258       0.03221784
Pt       5.61442797       6.48298326      24.58417386        2       0.00826752       0.00500886       0.02474697
Pt       8.42164223       6.48298340      24.58417377        2       0.01418112       0.00060000       0.02930834
Pt       0.01081128       0.01040751      26.91277375        1       0.00023021      -0.02900764       0.01254049
Pt       2.82100026       0.00799987      26.91237063        1      -0.01846201      -0.01243657       0.01599169
Pt       5.62394956       0.00449379      26.91902053        1       0.00947168       0.00821765      -0.01265412
Pt       1.41641657       2.43869042      26.91805566        1      -0.01210418      -0.00494519      -0.00830244
Pt       4.22033442       2.43664730      26.91917655        1       0.01045002       0.00395852      -0.01308523
Pt       7.02859128       2.43665470      26.91719292        1      -0.00131604      -0.00044789      -0.00661090
Pt       2.81913468       4.86834616      26.91626948        1       0.00488963       0.00444171      -0.00327978
Pt       5.62993624       4.86577005      26.91306589        1      -0.02759453       0.01480374       0.01149327
Pt       8.43509342       4.86903288      26.91824993        1      -0.01055855      -0.00808912      -0.00925468
C        4.78441291       5.99497922      32.43382774        0       0.00102001       0.01223079       0.02524811
O        5.01873630       6.14843462      33.58127114        0       0.00606816      -0.00185658       0.01590852
O        4.54932498       5.84273527      31.28764204        0      -0.00694619      -0.01030659      -0.04563524
