39
Lattice="8.421641763931781 0.0 0.0 4.2108208819658905 7.293355709136913 0.0 0.0 0.0 46.87624170604845" Properties=species:S:1:pos:R:3:tags:I:1:forces:R:3 charge=0 spin=0 energy=-209.36670397852856 free_energy=-209.36670397852856 stress="0.01048333290964365 1.5196555978036486e-05 -3.6027422538609244e-06 1.5196555978036486e-05 0.010460120625793934 -4.358462319942191e-06 -3.6027422538609244e-06 -4.358462319942191e-06 -0.00010732474765973166" pbc="T T T"
Pt      -0.00000001       0.00000022      19.95723425        4      -0.00074114      -0.00053602       0.01508041
Pt       2.80721397      -0.00000009      19.95723437        4      -0.00057724      -0.00033903       0.01509464
Pt       5.61442779      -0.00000006      19.95723442        4      -0.00076641      -0.00057232       0.01529073
Pt       1.40360720       2.43111836      19.95723428        4      -0.00101016      -0.00031789       0.01518480
Pt       4.21082081       2.43111834      19.95723435        4      -0.00067611      -0.00063416       0.01533836
Pt       7.01803481       2.43111842      19.95723424        4      -0.00073644      -0.00037868       0.01529888
Pt       2.80721405       4.86223723      19.95723396        4      -0.00081240      -0.00081368       0.01509124
Pt       5.61442805       4.86223729      19.95723414        4      -0.00051455      -0.00034893       0.01507950
Pt       8.42164141       4.86223719      19.95723428        4      -0.00048835      -0.00066317       0.01523081
Pt       1.40360726       0.81037260      22.29206791        3      -0.00336955      -0.00248246      -0.04625264
Pt       4.21082130       0.81037249      22.29206785        3      -0.00312709      -0.00149505      -0.04632073
Pt       7.01803472       0.81037257      22.29206783        3      -0.00311941      -0.00240285      -0.04667103
Pt       2.80721450       3.24149124      22.29206777        3      -0.00278665      -0.00140720      -0.04429825
Pt       5.61442762       3.24149124      22.29206789        3      -0.00343221      -0.00140717      -0.04650784
Pt       8.42164156       3.24149128      22.29206809        3      -0.00396948      -0.00207312      -0.03966774
Pt       4.21082092       5.67260996      22.29206799        3      -0.00298230      -0.00159746      -0.04808131
Pt       7.01803487       5.67261037      22.29206782        3      -0.00435894      -0.00134243      -0.04620563
Pt       9.82524820       5.67261064      22.29206809        3      -0.00317227      -0.00154298      -0.04438774
Pt      -0.00000052       1.62074570      24.58417379        2       0.00988319       0.01451689       0.03110551
Pt       2.80721442       1.62074548      24.58417394        2       0.00839470       0.01217727       0.02886063
Pt       5.61442780       1.62074537      24.58417373        2       0.00694129       0.00338379       0.04343184
Pt       1.40360637       4.05186438      24.58417386        2       0.00569446       0.00363146       0.03584239
Pt       4.21082089       4.05186400      24.58417379        2       0.00721449      -0.00043790       0.03273700
Pt       7.01803504       4.05186405      24.58417405        2       0.01793814       0.00042072       0.03111906
Pt       2.80721281       6.48298343      24.58417366        2       0.00294820       0.00447559       0.03222664
Pt       5.61442797       6.48298326      24.58417386        2       0.00825325       0.00500248       0.02475711
Pt       8.42164223       6.48298340      24.58417377        2       0.01417025       0.00058943       0.02929117
Pt       0.01079614       0.01040617      26.91277111        1       0.00023439      -0.02905642       0.01254008
Pt       2.82099204       0.00799536      26.91236782        1      -0.01850611      -0.01246349       0.01600615
Pt       5.62393028       0.00448049      26.91902008        1       0.00952085       0.00825458      -0.01265228
Pt       1.41640482       2.43868130      26.91805750        1      -0.01212899      -0.00494290      -0.00830000
Pt       4.22031326       2.43663611      26.91917605        1       0.01051018       0.00398811      -0.01308340
Pt       7.02857809       2.43664586      26.91720304        1      -0.00132811      -0.00044670      -0.00666389
Pt       2.81911123       4.86833298      26.91626651        1       0.00495655       0.00447867      -0.00328561
Pt       5.62992737       4.86575676      26.91306167        1      -0.02763254       0.01483063       0.01150192
Pt       8.43507963       4.86902742      26.91825115        1      -0.01056794      -0.00811668      -0.00925239
C        4.78440829       5.99497729      32.43385879        0       0.00095118       0.01217128       0.02441876
O        5.01873865       6.14843671      33.58129283        0       0.00619235      -0.00176872       0.01675661
O        4.54932662       5.84273624      31.28766994        0      -0.00699905      -0.01033344      -0.04565373
