39
Lattice="8.421641763931781 0.0 0.0 4.2108208819658905 7.293355709136913 0.0 0.0 0.0 46.87624170604845" Properties=species:S:1:pos:R:3:tags:I:1:forces:R:3 charge=0 spin=0 energy=-209.3667068395515 free_energy=-209.3667068395515 stress="0.010483086109161377 1.5141476069402415e-05 -3.498352725728182e-06 1.5141476069402415e-05 0.01045997440814972 -4.28660223406041e-06 -3.498352725728182e-06 -4.28660223406041e-06 -0.0001072078594006598" pbc="T T T"
Pt      -0.00000001       0.00000022      19.95723425        4      -0.00073818      -0.00053492       0.01507939
Pt       2.80721397      -0.00000009      19.95723437        4      -0.00057412      -0.00033679       0.01509502
Pt       5.61442779      -0.00000006      19.95723442        4      -0.00076388      -0.00056787       0.01529073
Pt       1.40360720       2.43111836      19.95723428        4      -0.00100721      -0.00031618       0.01518495
Pt       4.21082081       2.43111834      19.95723435        4      -0.00067149      -0.00063307       0.01533853
Pt       7.01803481       2.43111842      19.95723424        4      -0.00073407      -0.00037646       0.01529968
Pt       2.80721405       4.86223723      19.95723396        4      -0.00080696      -0.00080933       0.01509243
Pt       5.61442805       4.86223729      19.95723414        4      -0.00051253      -0.00034594       0.01507831
Pt       8.42164141       4.86223719      19.95723428        4      -0.00048610      -0.00066123       0.01523070
Pt       1.40360726       0.81037260      22.29206791        3      -0.00335304      -0.00247184      -0.04625276
Pt       4.21082130       0.81037249      22.29206785        3      -0.00311283      -0.00148747      -0.04631035
Pt       7.01803472       0.81037257      22.29206783        3      -0.00310436      -0.00239413      -0.04666725
Pt       2.80721450       3.24149124      22.29206777        3      -0.00277241      -0.00139817      -0.04430666
Pt       5.61442762       3.24149124      22.29206789        3      -0.00341668      -0.00139899      -0.04650424
Pt       8.42164156       3.24149128      22.29206809        3      -0.00395095      -0.00206253      -0.03966811
Pt       4.21082092       5.67260996      22.29206799        3      -0.00296773      -0.00158984      -0.04807029
Pt       7.01803487       5.67261037      22.29206782        3      -0.00434146      -0.00133448      -0.04620536
Pt       9.82524820       5.67261064      22.29206809        3      -0.00315657      -0.00153570      -0.04439617
Pt      -0.00000052       1.62074570      24.58417379        2       0.00982512       0.01451132       0.03104391
Pt       2.80721442       1.62074548      24.58417394        2       0.00837709       0.01212067       0.02884120
Pt       5.61442780       1.62074537      24.58417373        2       0.00690618       0.00335967       0.04337020
Pt       1.40360637       4.05186438      24.58417386        2       0.00565480       0.00360759       0.03588757
Pt       4.21082089       4.05186400      24.58417379        2       0.00715254      -0.00044970       0.03264857
Pt       7.01803504       4.05186405      24.58417405        2       0.01790668       0.00037437       0.03105050
Pt       2.80721281       6.48298343      24.58417366        2       0.00290848       0.00443356       0.03215402
Pt       5.61442797       6.48298326      24.58417386        2       0.00822103       0.00498528       0.02463784
Pt       8.42164223       6.48298340      24.58417377        2       0.01411563       0.00059892       0.02926883
Pt       0.01074934       0.01037154      26.91275317        1       0.00017430      -0.02901148       0.01265308
Pt       2.82090817       0.00794388      26.91237613        1      -0.01825718      -0.01230896       0.01597663
Pt       5.62389216       0.00444932      26.91899837        1       0.00941071       0.00825873      -0.01257444
Pt       1.41635498       2.43861783      26.91804393        1      -0.01212339      -0.00469979      -0.00826166
Pt       4.22026932       2.43662152      26.91915347        1       0.01044281       0.00386534      -0.01299435
Pt       7.02852039       2.43661512      26.91719939        1      -0.00125835      -0.00042994      -0.00665176
Pt       2.81906906       4.86830752      26.91626777        1       0.00483459       0.00441941      -0.00329106
Pt       5.62987044       4.86573082      26.91304286        1      -0.02760666       0.01478016       0.01162713
Pt       8.43500016       4.86901452      26.91823605        1      -0.01035180      -0.00822588      -0.00921293
C        4.78442451       5.99498387      32.43361071        0       0.00098157       0.01226570       0.02513326
O        5.01873602       6.14843619      33.58105730        0       0.00605346      -0.00189628       0.01580572
O        4.54934593       5.84275049      31.28741915        0      -0.00689699      -0.01030398      -0.04542074
