39
Lattice="8.421641763931781 0.0 0.0 4.2108208819658905 7.293355709136913 0.0 0.0 0.0 46.87624170604845" Properties=species:S:1:pos:R:3:tags:I:1:forces:R:3 charge=0 spin=0 energy=-209.36670874690014 free_energy=-209.36670874690014 stress="0.010483295656740665 1.5207770957204048e-05 -3.5230020785093075e-06 1.5207770957204048e-05 0.010460058227181435 -4.306475602788851e-06 -3.5230020785093075e-06 -4.306475602788851e-06 -0.00010706212924560532" pbc="T T T"
Pt      -0.00000001       0.00000022      19.95723425        4      -0.00074153      -0.00053647       0.01508037
Pt       2.80721397      -0.00000009      19.95723437        4      -0.00057738      -0.00033920       0.01509485
Pt       5.61442779      -0.00000006      19.95723442        4      -0.00076678      -0.00057231       0.01529082
Pt       1.40360720       2.43111836      19.95723428        4      -0.00101067      -0.00031822       0.01518488
Pt       4.21082081       2.43111834      19.95723435        4      -0.00067600      -0.00063459       0.01533855
Pt       7.01803481       2.43111842      19.95723424        4      -0.00073659      -0.00037888       0.01529862
Pt       2.80721405       4.86223723      19.95723396        4      -0.00081224      -0.00081351       0.01509129
Pt       5.61442805       4.86223729      19.95723414        4      -0.00051479      -0.00034928       0.01507941
Pt       8.42164141       4.86223719      19.95723428        4      -0.00048880      -0.00066371       0.01523077
Pt       1.40360726       0.81037260      22.29206791        3      -0.00337056      -0.00248272      -0.04625313
Pt       4.21082130       0.81037249      22.29206785        3      -0.00312909      -0.00149578      -0.04631780
Pt       7.01803472       0.81037257      22.29206783        3      -0.00312096      -0.00240258      -0.04667059
Pt       2.80721450       3.24149124      22.29206777        3      -0.00278819      -0.00140800      -0.04429897
Pt       5.61442762       3.24149124      22.29206789        3      -0.00343360      -0.00140809      -0.04650751
Pt       8.42164156       3.24149128      22.29206809        3      -0.00397119      -0.00207442      -0.03966836
Pt       4.21082092       5.67260996      22.29206799        3      -0.00298407      -0.00159833      -0.04807993
Pt       7.01803487       5.67261037      22.29206782        3      -0.00435985      -0.00134282      -0.04620587
Pt       9.82524820       5.67261064      22.29206809        3      -0.00317359      -0.00154316      -0.04438764
Pt      -0.00000052       1.62074570      24.58417379        2       0.00988435       0.01452503       0.03108715
Pt       2.80721442       1.62074548      24.58417394        2       0.00840365       0.01217585       0.02885064
Pt       5.61442780       1.62074537      24.58417373        2       0.00694428       0.00338407       0.04341578
Pt       1.40360637       4.05186438      24.58417386        2       0.00569444       0.00363292       0.03584098
Pt       4.21082089       4.05186400      24.58417379        2       0.00721630      -0.00043316       0.03271654
Pt       7.01803504       4.05186405      24.58417405        2       0.01794594       0.00042067       0.03110254
Pt       2.80721281       6.48298343      24.58417366        2       0.00295001       0.00447522       0.03220613
Pt       5.61442797       6.48298326      24.58417386        2       0.00825815       0.00500280       0.02472989
Pt       8.42164223       6.48298340      24.58417377        2       0.01417393       0.00059450       0.02928019
Pt       0.01080173       0.01040931      26.91276480        1       0.00022015      -0.02905669       0.01256718
Pt       2.82099165       0.00799443      26.91236665        1      -0.01847127      -0.01243857       0.01601459
Pt       5.62393739       0.00448382      26.91901615        1       0.00949806       0.00824961      -0.01263699
Pt       1.41641079       2.43867945      26.91805547        1      -0.01213650      -0.00490929      -0.00828725
Pt       4.22032063       2.43664229      26.91917197        1       0.01048684       0.00396243      -0.01306818
Pt       7.02858133       2.43664906      26.91720128        1      -0.00131357      -0.00044811      -0.00665378
Pt       2.81911711       4.86833615      26.91626427        1       0.00493215       0.00446592      -0.00328434
Pt       5.62993220       4.86576002      26.91305679        1      -0.02763956       0.01482557       0.01152185
Pt       8.43508058       4.86903339      26.91824917        1      -0.01053918      -0.00813751      -0.00924635
C        4.78440554       5.99497529      32.43390411        0       0.00109491       0.01227492       0.02513403
O        5.01874299       6.14843959      33.58134393        0       0.00601574      -0.00188914       0.01588935
O        4.54931927       5.84273132      31.28771566        0      -0.00696300      -0.01031475      -0.04547960
