39
Lattice="8.421641763931781 0.0 0.0 4.2108208819658905 7.293355709136913 0.0 0.0 0.0 46.87624170604845" Properties=species:S:1:pos:R:3:tags:I:1:forces:R:3 charge=0 spin=0 energy=-209.37125014399487 free_energy=-209.37125014399487 stress="0.010509166866540909 8.492468623444438e-06 -9.326959116151556e-06 8.492468623444438e-06 0.010492074303328991 -7.709965757385362e-06 -9.326959116151556e-06 -7.709965757385362e-06 -4.65751436422579e-05" pbc="T T T"
Pt      -0.00000001       0.00000022      19.95723425        4      -0.00069853      -0.00036230       0.01525721
Pt       2.80721397      -0.00000009      19.95723437        4      -0.00037392      -0.00021673       0.01544733
Pt       5.61442779      -0.00000006      19.95723442        4      -0.00042844      -0.00070891       0.01530884
Pt       1.40360720       2.43111836      19.95723428        4      -0.00009163      -0.00045349       0.01555899
Pt       4.21082081       2.43111834      19.95723435        4      -0.00060920      -0.00019237       0.01531380
Pt       7.01803481       2.43111842      19.95723424        4      -0.00101352      -0.00045548       0.01524769
Pt       2.80721405       4.86223723      19.95723396        4      -0.00027498      -0.00048105       0.01504163
Pt       5.61442805       4.86223729      19.95723414        4      -0.00036045      -0.00038182       0.01518808
Pt       8.42164141       4.86223719      19.95723428        4      -0.00023464       0.00012332       0.01545551
Pt       1.40360726       0.81037260      22.29206791        3      -0.00219296      -0.00151354      -0.04550680
Pt       4.21082130       0.81037249      22.29206785        3      -0.00166992      -0.00137889      -0.04615680
Pt       7.01803472       0.81037257      22.29206783        3      -0.00157330      -0.00227960      -0.04514631
Pt       2.80721450       3.24149124      22.29206777        3      -0.00151194      -0.00059884      -0.04329020
Pt       5.61442762       3.24149124      22.29206789        3      -0.00227740      -0.00049521      -0.04460433
Pt       8.42164156       3.24149128      22.29206809        3      -0.00224267      -0.00125881      -0.04248992
Pt       4.21082092       5.67260996      22.29206799        3      -0.00157599      -0.00095972      -0.04887075
Pt       7.01803487       5.67261037      22.29206782        3      -0.00282477      -0.00134530      -0.04563839
Pt       9.82524820       5.67261064      22.29206809        3      -0.00161626      -0.00177013      -0.04354535
Pt      -0.00000052       1.62074570      24.58417379        2       0.00676766       0.00892538       0.04201674
Pt       2.80721442       1.62074548      24.58417394        2       0.00472673       0.00710196       0.04109284
Pt       5.61442780       1.62074537      24.58417373        2       0.00369630       0.00279769       0.04821422
Pt       1.40360637       4.05186438      24.58417386        2       0.00684891       0.00449666       0.03440865
Pt       4.21082089       4.05186400      24.58417379        2       0.00081585      -0.00767451       0.03248961
Pt       7.01803504       4.05186405      24.58417405        2       0.01091831       0.00137253       0.04290092
Pt       2.80721281       6.48298343      24.58417366        2      -0.00665958       0.00456033       0.03288181
Pt       5.61442797       6.48298326      24.58417386        2       0.01027933       0.00596062       0.02690184
Pt       8.42164223       6.48298340      24.58417377        2       0.00886072       0.00201341       0.04045255
Pt       0.00489358       0.00159727      26.91389822        1       0.00939804       0.02259793       0.00616548
Pt       2.81412617       0.00422716      26.91509526        1      -0.01155224      -0.00503384       0.00756921
Pt       5.61859465       0.00564829      26.92160771        1       0.00957855      -0.00379949      -0.02284192
Pt       1.41160685       2.44066533      26.91783905        1      -0.00832398      -0.03356510      -0.01122066
Pt       4.21637102       2.43262385      26.92149494        1       0.00451980       0.00991244      -0.02234286
Pt       7.02553528       2.43523044      26.91797667        1      -0.00522332      -0.00045055      -0.01378834
Pt       2.81687575       4.86860983      26.91916007        1      -0.01681010      -0.01150435      -0.01386124
Pt       5.61803842       4.86457814      26.91412498        1       0.02454565       0.00148871       0.00477357
Pt       8.43364641       4.86617835      26.91786670        1      -0.03336264       0.00370578      -0.01126471
C        4.58283246       5.90333009      31.93938004        0       0.01135459      -0.02046417      -0.01023393
O        5.20369620       6.25970946      32.87883020        0       0.00239121       0.01475997       0.00719977
O        3.96381218       5.54339641      31.00091453        0      -0.01119916       0.00752735       0.00591631
