39
Lattice="8.421641763931781 0.0 0.0 4.2108208819658905 7.293355709136913 0.0 0.0 0.0 46.87624170604845" Properties=species:S:1:pos:R:3:tags:I:1:forces:R:3 charge=0 spin=0 energy=-209.37124919032055 free_energy=-209.37124919032055 stress="0.010509162209928036 8.443271326541435e-06 -9.46635555010289e-06 8.443271326541435e-06 0.010492123663425446 -7.789451046846807e-06 -9.46635555010289e-06 -7.789451046846807e-06 -4.664595689973794e-05" pbc="T T T"
Pt      -0.00000001       0.00000022      19.95723425        4      -0.00069856      -0.00036182       0.01525740
Pt       2.80721397      -0.00000009      19.95723437        4      -0.00037349      -0.00021642       0.01544714
Pt       5.61442779      -0.00000006      19.95723442        4      -0.00042866      -0.00070896       0.01530884
Pt       1.40360720       2.43111836      19.95723428        4      -0.00009200      -0.00045289       0.01555901
Pt       4.21082081       2.43111834      19.95723435        4      -0.00060932      -0.00019258       0.01531393
Pt       7.01803481       2.43111842      19.95723424        4      -0.00101300      -0.00045502       0.01524801
Pt       2.80721405       4.86223723      19.95723396        4      -0.00027573      -0.00048166       0.01504171
Pt       5.61442805       4.86223729      19.95723414        4      -0.00036001      -0.00038221       0.01518846
Pt       8.42164141       4.86223719      19.95723428        4      -0.00023423       0.00012304       0.01545547
Pt       1.40360726       0.81037260      22.29206791        3      -0.00219171      -0.00151470      -0.04550915
Pt       4.21082130       0.81037249      22.29206785        3      -0.00167023      -0.00137908      -0.04616123
Pt       7.01803472       0.81037257      22.29206783        3      -0.00157463      -0.00227982      -0.04514789
Pt       2.80721450       3.24149124      22.29206777        3      -0.00150971      -0.00059940      -0.04328841
Pt       5.61442762       3.24149124      22.29206789        3      -0.00227809      -0.00049491      -0.04460593
Pt       8.42164156       3.24149128      22.29206809        3      -0.00224309      -0.00125907      -0.04248118
Pt       4.21082092       5.67260996      22.29206799        3      -0.00157511      -0.00095904      -0.04887560
Pt       7.01803487       5.67261037      22.29206782        3      -0.00282582      -0.00134359      -0.04564106
Pt       9.82524820       5.67261064      22.29206809        3      -0.00161611      -0.00176777      -0.04354335
Pt      -0.00000052       1.62074570      24.58417379        2       0.00676245       0.00894693       0.04205243
Pt       2.80721442       1.62074548      24.58417394        2       0.00471504       0.00711254       0.04110516
Pt       5.61442780       1.62074537      24.58417373        2       0.00371028       0.00280383       0.04824921
Pt       1.40360637       4.05186438      24.58417386        2       0.00683245       0.00448684       0.03442063
Pt       4.21082089       4.05186400      24.58417379        2       0.00081150      -0.00767940       0.03249497
Pt       7.01803504       4.05186405      24.58417405        2       0.01093792       0.00135537       0.04293629
Pt       2.80721281       6.48298343      24.58417366        2      -0.00666568       0.00455911       0.03289166
Pt       5.61442797       6.48298326      24.58417386        2       0.01028098       0.00596299       0.02691713
Pt       8.42164223       6.48298340      24.58417377        2       0.00886640       0.00199949       0.04046616
Pt       0.00489047       0.00160115      26.91389471        1       0.00942129       0.02256879       0.00616892
Pt       2.81413424       0.00423138      26.91509168        1      -0.01161115      -0.00506662       0.00757445
Pt       5.61859290       0.00564761      26.92161294        1       0.00959849      -0.00379347      -0.02286143
Pt       1.41160688       2.44066849      26.91785029        1      -0.00833843      -0.03359585      -0.01126246
Pt       4.21636969       2.43262159      26.92149915        1       0.00453566       0.00992768      -0.02235596
Pt       7.02553490       2.43522917      26.91799627        1      -0.00522255      -0.00044477      -0.01386890
Pt       2.81686592       4.86860442      26.91915833        1      -0.01674824      -0.01147028      -0.01385333
Pt       5.61804101       4.86457139      26.91412054        1       0.02453177       0.00152802       0.00478589
Pt       8.43364902       4.86617740      26.91787785        1      -0.03339552       0.00370196      -0.01130722
C        4.58283479       5.90334207      31.93938077        0       0.01083823      -0.02083122      -0.01088927
O        5.20369121       6.25970409      32.87883043        0       0.00286068       0.01506476       0.00784591
O        3.96381020       5.54340754      31.00091501        0      -0.01115192       0.00758923       0.00592382
