39
Lattice="8.421641763931781 0.0 0.0 4.2108208819658905 7.293355709136913 0.0 0.0 0.0 46.87624170604845" Properties=species:S:1:pos:R:3:tags:I:1:forces:R:3 charge=0 spin=0 energy=-209.3667058858772 free_energy=-209.3667058858772 stress="0.010483336634933949 1.5216714928101283e-05 -3.5007942642550915e-06 1.5216714928101283e-05 0.0104600815102458 -4.29101373811136e-06 -3.5007942642550915e-06 -4.29101373811136e-06 -0.00010692240903154016" pbc="T T T"
Pt      -0.00000001       0.00000022      19.95723425        4      -0.00074191      -0.00053726       0.01508013
Pt       2.80721397      -0.00000009      19.95723437        4      -0.00057791      -0.00033977       0.01509483
Pt       5.61442779      -0.00000006      19.95723442        4      -0.00076685      -0.00057254       0.01529095
Pt       1.40360720       2.43111836      19.95723428        4      -0.00101073      -0.00031884       0.01518490
Pt       4.21082081       2.43111834      19.95723435        4      -0.00067629      -0.00063487       0.01533855
Pt       7.01803481       2.43111842      19.95723424        4      -0.00073730      -0.00037948       0.01529909
Pt       2.80721405       4.86223723      19.95723396        4      -0.00081215      -0.00081353       0.01509150
Pt       5.61442805       4.86223729      19.95723414        4      -0.00051549      -0.00034928       0.01507939
Pt       8.42164141       4.86223719      19.95723428        4      -0.00048945      -0.00066358       0.01523092
Pt       1.40360726       0.81037260      22.29206791        3      -0.00337254      -0.00248259      -0.04625261
Pt       4.21082130       0.81037249      22.29206785        3      -0.00313076      -0.00149721      -0.04631750
Pt       7.01803472       0.81037257      22.29206783        3      -0.00312298      -0.00240390      -0.04666867
Pt       2.80721450       3.24149124      22.29206777        3      -0.00279064      -0.00140892      -0.04430117
Pt       5.61442762       3.24149124      22.29206789        3      -0.00343526      -0.00140916      -0.04650622
Pt       8.42164156       3.24149128      22.29206809        3      -0.00397176      -0.00207443      -0.03967258
Pt       4.21082092       5.67260996      22.29206799        3      -0.00298595      -0.00159968      -0.04807634
Pt       7.01803487       5.67261037      22.29206782        3      -0.00436153      -0.00134463      -0.04620524
Pt       9.82524820       5.67261064      22.29206809        3      -0.00317558      -0.00154479      -0.04438929
Pt      -0.00000052       1.62074570      24.58417379        2       0.00988787       0.01451674       0.03109018
Pt       2.80721442       1.62074548      24.58417394        2       0.00841063       0.01216824       0.02886646
Pt       5.61442780       1.62074537      24.58417373        2       0.00695036       0.00338631       0.04340593
Pt       1.40360637       4.05186438      24.58417386        2       0.00570730       0.00364095       0.03586180
Pt       4.21082089       4.05186400      24.58417379        2       0.00721830      -0.00042675       0.03271408
Pt       7.01803504       4.05186405      24.58417405        2       0.01794220       0.00042751       0.03110531
Pt       2.80721281       6.48298343      24.58417366        2       0.00295882       0.00447727       0.03220751
Pt       5.61442797       6.48298326      24.58417386        2       0.00826509       0.00500874       0.02473013
Pt       8.42164223       6.48298340      24.58417377        2       0.01417286       0.00060554       0.02929972
Pt       0.01081026       0.01040728      26.91277117        1       0.00020788      -0.02901802       0.01255648
Pt       2.82099200       0.00799399      26.91237472        1      -0.01842354      -0.01240990       0.01597850
Pt       5.62394938       0.00448996      26.91901389        1       0.00945465       0.00823309      -0.01263090
Pt       1.41641519       2.43867952      26.91805319        1      -0.01211862      -0.00488299      -0.00828668
Pt       4.22033133       2.43664886      26.91916812        1       0.01045289       0.00393655      -0.01305486
Pt       7.02858928       2.43665377      26.91719938        1      -0.00131711      -0.00045009      -0.00664714
Pt       2.81913001       4.86834420      26.91626869        1       0.00488234       0.00443539      -0.00329132
Pt       5.62993402       4.86576828      26.91306096        1      -0.02760834       0.01479366       0.01151988
Pt       8.43508310       4.86903759      26.91824627        1      -0.01051086      -0.00813564      -0.00924764
C        4.78441307       5.99497893      32.43376497        0       0.00112792       0.01231148       0.02558220
O        5.01873561       6.14843485      33.58121345        0       0.00598315      -0.00191709       0.01558893
O        4.54933295       5.84274062      31.28757781        0      -0.00696881      -0.01032682      -0.04564932
