39
Lattice="8.421641763931781 0.0 0.0 4.2108208819658905 7.293355709136913 0.0 0.0 0.0 46.87624170604845" Properties=species:S:1:pos:R:3:tags:I:1:forces:R:3 charge=0 spin=0 energy=-209.3623876485725 free_energy=-209.3623876485725 stress="0.010582908987998962 6.33503805147484e-05 -1.67742637131596e-05 6.33503805147484e-05 0.0104777617380023 -1.438021627109265e-05 -1.67742637131596e-05 -1.438021627109265e-05 -5.034875721321441e-05" pbc="T T T"
Pt      -0.00000001       0.00000022      19.95723425        4      -0.00334050      -0.00250371       0.01521964
Pt       2.80721397      -0.00000009      19.95723437        4      -0.00311187      -0.00240281       0.01532651
Pt       5.61442779      -0.00000006      19.95723442        4      -0.00309012      -0.00270763       0.01529423
Pt       1.40360720       2.43111836      19.95723428        4      -0.00303741      -0.00251667       0.01535895
Pt       4.21082081       2.43111834      19.95723435        4      -0.00319438      -0.00230963       0.01532807
Pt       7.01803481       2.43111842      19.95723424        4      -0.00356616      -0.00253292       0.01526830
Pt       2.80721405       4.86223723      19.95723396        4      -0.00309958      -0.00263675       0.01504674
Pt       5.61442805       4.86223729      19.95723414        4      -0.00308649      -0.00241487       0.01515937
Pt       8.42164141       4.86223719      19.95723428        4      -0.00295283      -0.00226103       0.01532477
Pt       1.40360726       0.81037260      22.29206791        3      -0.01501751      -0.00874275      -0.04538929
Pt       4.21082130       0.81037249      22.29206785        3      -0.01467214      -0.00834595      -0.04672023
Pt       7.01803472       0.81037257      22.29206783        3      -0.01468152      -0.00923684      -0.04517196
Pt       2.80721450       3.24149124      22.29206777        3      -0.01471566      -0.00786132      -0.04438534
Pt       5.61442762       3.24149124      22.29206789        3      -0.01523865      -0.00776129      -0.04482328
Pt       8.42164156       3.24149128      22.29206809        3      -0.01526942      -0.00834673      -0.04215357
Pt       4.21082092       5.67260996      22.29206799        3      -0.01483065      -0.00832758      -0.04771445
Pt       7.01803487       5.67261037      22.29206782        3      -0.01565591      -0.00827843      -0.04545080
Pt       9.82524820       5.67261064      22.29206809        3      -0.01474657      -0.00881032      -0.04456319
Pt      -0.00000052       1.62074570      24.58417379        2       0.04055654       0.02589189       0.04218520
Pt       2.80721442       1.62074548      24.58417394        2       0.03643814       0.02564447       0.04193448
Pt       5.61442780       1.62074537      24.58417373        2       0.03735078       0.02246374       0.04302303
Pt       1.40360637       4.05186438      24.58417386        2       0.03870174       0.02338433       0.03805213
Pt       4.21082089       4.05186400      24.58417379        2       0.03836748       0.01703241       0.03490697
Pt       7.01803504       4.05186405      24.58417405        2       0.04166186       0.02259985       0.04196806
Pt       2.80721281       6.48298343      24.58417366        2       0.03300707       0.02491507       0.03445251
Pt       5.61442797       6.48298326      24.58417386        2       0.04070039       0.02469783       0.03909611
Pt       8.42164223       6.48298340      24.58417377        2       0.03980349       0.02012756       0.04202388
Pt       0.05204790       0.03118744      26.91844056        1      -0.00452047      -0.00548731      -0.00785343
Pt       2.86183973       0.03205072      26.91776517        1      -0.03133920      -0.01822730      -0.00105952
Pt       5.66711074       0.03201546      26.92064114        1      -0.01655119      -0.01412907      -0.01413669
Pt       1.45742253       2.46588913      26.91939912        1      -0.01824549      -0.03261407      -0.01229430
Pt       4.26408998       2.46142468      26.92074524        1      -0.01870028      -0.00705640      -0.01444659
Pt       7.07150486       2.46241301      26.91879912        1      -0.01795982      -0.01070224      -0.00871340
Pt       2.86416963       4.89575182      26.91909909        1      -0.03227213      -0.01957977      -0.00651788
Pt       5.66727018       4.89193568      26.91868873        1      -0.00795608      -0.00067793      -0.00900581
Pt       8.47821685       4.89239977      26.91934009        1      -0.03622238      -0.00080365      -0.01209587
C        4.67186796       5.93994085      32.14228711        0      -0.02693813      -0.01576371       0.02407097
O        5.08540298       6.18709848      33.22049679        0       0.02897278       0.01707300       0.01868926
O        4.25292590       5.68936394      31.06794919        0      -0.00154756      -0.00079149      -0.04523363
