39
Lattice="8.421641763931781 0.0 0.0 4.2108208819658905 7.293355709136913 0.0 0.0 0.0 46.87624170604845" Properties=species:S:1:pos:R:3:tags:I:1:forces:R:3 charge=0 spin=0 energy=-209.3679265890022 free_energy=-209.3679265890022 stress="0.010428356938064098 -1.7390768825009673e-09 -1.0768412828099372e-08 -1.7390768825009673e-09 0.010428383946418762 1.2178614383628883e-07 -1.0768412828099372e-08 1.2178614383628883e-07 -0.00019080573110841215" pbc="T T T"
Pt      -0.00000001       0.00000022      19.95723425        4      -0.00007223      -0.00039280       0.01513162
Pt       2.80721397      -0.00000009      19.95723437        4      -0.00014244      -0.00000882       0.01537417
Pt       5.61442779      -0.00000006      19.95723442        4       0.00008062      -0.00011010       0.01536327
Pt       1.40360720       2.43111836      19.95723428        4       0.00036319      -0.00022532       0.01530023
Pt       4.21082081       2.43111834      19.95723435        4       0.00006062       0.00012434       0.01538058
Pt       7.01803481       2.43111842      19.95723424        4      -0.00037955      -0.00020281       0.01529919
Pt       2.80721405       4.86223723      19.95723396        4       0.00037838       0.00012628       0.01513842
Pt       5.61442805       4.86223729      19.95723414        4      -0.00030466       0.00025739       0.01513925
Pt       8.42164141       4.86223719      19.95723428        4       0.00001538       0.00043063       0.01529875
Pt       1.40360726       0.81037260      22.29206791        3      -0.00099925       0.00012988      -0.04460620
Pt       4.21082130       0.81037249      22.29206785        3      -0.00000404       0.00000763      -0.04279449
Pt       7.01803472       0.81037257      22.29206783        3       0.00106999       0.00007646      -0.04462919
Pt       2.80721450       3.24149124      22.29206777        3      -0.00060180       0.00089447      -0.04462720
Pt       5.61442762       3.24149124      22.29206789        3       0.00060581       0.00080172      -0.04459716
Pt       8.42164156       3.24149128      22.29206809        3       0.00000329       0.00000202      -0.04599959
Pt       4.21082092       5.67260996      22.29206799        3      -0.00000374       0.00000557      -0.04482480
Pt       7.01803487       5.67261037      22.29206782        3      -0.00048047      -0.00096691      -0.04462352
Pt       9.82524820       5.67261064      22.29206809        3       0.00039755      -0.00093782      -0.04459085
Pt      -0.00000052       1.62074570      24.58417379        2       0.00051521      -0.01391336       0.01144823
Pt       2.80721442       1.62074548      24.58417394        2       0.00931458      -0.00534062       0.01952009
Pt       5.61442780       1.62074537      24.58417373        2      -0.00928065      -0.00538790       0.01951004
Pt       1.40360637       4.05186438      24.58417386        2       0.01179932       0.00741023       0.01146844
Pt       4.21082089       4.05186400      24.58417379        2       0.00035729       0.00120359       0.03141527
Pt       7.01803504       4.05186405      24.58417405        2      -0.01230620       0.00653875       0.01146790
Pt       2.80721281       6.48298343      24.58417366        2       0.00084964      -0.00091798       0.03145045
Pt       5.61442797       6.48298326      24.58417386        2      -0.00119922      -0.00028511       0.03146161
Pt       8.42164223       6.48298340      24.58417377        2      -0.00003718       0.01072076       0.01958270
Pt       0.00013438      -0.00242580      26.91972948        1      -0.00038532       0.00844548      -0.01635986
Pt       2.80635357      -0.00073406      26.91593344        1       0.00604550       0.00407678      -0.00062392
Pt       5.61549243      -0.00038167      26.91593471        1      -0.00653918       0.00318737      -0.00064046
Pt       1.40340649       2.43100545      26.90646481        1       0.00738345      -0.00356554       0.03990146
Pt       4.21061613       2.43223462      26.91593178        1       0.00051039      -0.00725870      -0.00061247
Pt       7.01803368       2.43135637      26.90646701        1      -0.00676065      -0.00466766       0.03989143
Pt       2.80924882       4.86356590      26.91973828        1      -0.00714644      -0.00456135      -0.01639200
Pt       5.61226066       4.86333577      26.91973871        1       0.00752688      -0.00388044      -0.01638125
Pt       8.42184479       4.86212022      26.90647677        1      -0.00063409       0.00818374       0.03985856
C        4.21081884       5.67260511      32.18269922        0      -0.00000325      -0.00000315       0.03630559
O        4.21082865       5.67261812      33.36390978        0       0.00000189       0.00000249       0.00556131
O        4.21080837       5.67259105      31.00258230        0       0.00000118       0.00000072      -0.03396555
