39
Lattice="8.421641763931781 0.0 0.0 4.2108208819658905 7.293355709136913 0.0 0.0 0.0 46.87624170604845" Properties=species:S:1:pos:R:3:tags:I:1:forces:R:3 charge=0 spin=0 energy=-209.36783598994214 free_energy=-209.36783598994214 stress="0.010427581146359444 -1.0088325730350789e-08 1.0765115021627025e-08 -1.0088325730350789e-08 0.010427567176520824 -6.43191189197978e-09 1.0765115021627025e-08 -6.43191189197978e-09 -0.00018027891928795725" pbc="T T T"
Pt      -0.00000001       0.00000022      19.95723425        4      -0.00012880       0.00001317       0.01511834
Pt       2.80721397      -0.00000009      19.95723437        4      -0.00038623      -0.00013431       0.01542135
Pt       5.61442779      -0.00000006      19.95723442        4       0.00031057      -0.00026133       0.01541223
Pt       1.40360720       2.43111836      19.95723428        4       0.00046635      -0.00035183       0.01529591
Pt       4.21082081       2.43111834      19.95723435        4       0.00007469       0.00039968       0.01542460
Pt       7.01803481       2.43111842      19.95723424        4      -0.00053973      -0.00022811       0.01529731
Pt       2.80721405       4.86223723      19.95723396        4       0.00005469      -0.00012476       0.01512313
Pt       5.61442805       4.86223729      19.95723414        4       0.00007708       0.00010382       0.01512445
Pt       8.42164141       4.86223719      19.95723428        4       0.00007399       0.00058147       0.01529765
Pt       1.40360726       0.81037260      22.29206791        3      -0.00062169      -0.00026177      -0.04364473
Pt       4.21082130       0.81037249      22.29206785        3      -0.00000365       0.00000717      -0.04625984
Pt       7.01803472       0.81037257      22.29206783        3       0.00073602      -0.00051754      -0.04379868
Pt       2.80721450       3.24149124      22.29206777        3       0.00007999       0.00089481      -0.04380790
Pt       5.61442762       3.24149124      22.29206789        3       0.00008445       0.00066850      -0.04364746
Pt       8.42164156       3.24149128      22.29206809        3       0.00000530      -0.00000404      -0.04458843
Pt       4.21082092       5.67260996      22.29206799        3      -0.00000051       0.00000337      -0.04814574
Pt       7.01803487       5.67261037      22.29206782        3      -0.00082240      -0.00038333      -0.04379781
Pt       9.82524820       5.67261064      22.29206809        3       0.00054895      -0.00042039      -0.04363017
Pt      -0.00000052       1.62074570      24.58417379        2       0.00043487      -0.00859378       0.01207005
Pt       2.80721442       1.62074548      24.58417394        2       0.00298676      -0.00188464       0.02919990
Pt       5.61442780       1.62074537      24.58417373        2      -0.00310803      -0.00167526       0.02921730
Pt       1.40360637       4.05186438      24.58417386        2       0.00721251       0.00468334       0.01202752
Pt       4.21082089       4.05186400      24.58417379        2       0.00044615      -0.00824559       0.02129526
Pt       7.01803504       4.05186405      24.58417405        2      -0.00765365       0.00392783       0.01206280
Pt       2.80721281       6.48298343      24.58417366        2      -0.00738051       0.00373828       0.02135224
Pt       5.61442797       6.48298326      24.58417386        2       0.00693890       0.00452912       0.02136772
Pt       8.42164223       6.48298340      24.58417377        2       0.00011376       0.00351941       0.02926052
Pt       0.00022216      -0.00418378      26.91513344        1      -0.00058366       0.02542700       0.00350075
Pt       2.80861471       0.00049958      26.91682008        1      -0.00443172      -0.00150556      -0.00613722
Pt       5.61328666       0.00095100      26.91682467        1       0.00355753      -0.00301094      -0.00618599
Pt       1.39973095       2.43329802      26.91018993        1       0.03385683      -0.01958242       0.02487499
Pt       4.21055448       2.42967269      26.91680641        1       0.00089673       0.00453786      -0.00612490
Pt       7.02184806       2.43340334      26.91019732        1      -0.03380633      -0.01968079       0.02479243
Pt       2.81071637       4.86452248      26.91513395        1      -0.02170926      -0.01318225       0.00352516
Pt       5.61069461       4.86413748      26.91513490        1       0.02231489      -0.01214918       0.00351678
Pt       8.42170372       4.85778762      26.91020442        1      -0.00009536       0.03916240       0.02484944
C        4.21082702       5.67260380      32.16531425        0       0.00000377       0.00000048       0.01015414
O        4.21081906       5.67260820      33.34651634        0      -0.00000200      -0.00000068       0.00373935
O        4.21083512       5.67259914      30.98488217        0      -0.00000152       0.00000043      -0.00455266
