39
Lattice="8.421641763931781 0.0 0.0 4.2108208819658905 7.293355709136913 0.0 0.0 0.0 46.87624170604845" Properties=species:S:1:pos:R:3:tags:I:1:forces:R:3 charge=0 spin=0 energy=-209.3678388509651 free_energy=-209.3678388509651 stress="0.010427598841488361 -1.4366687006717171e-10 1.2836625984391503e-08 -1.4366687006717171e-10 0.010427589528262615 1.6359457122305798e-09 1.2836625984391503e-08 1.6359457122305798e-09 -0.0001800384052330628" pbc="T T T"
Pt      -0.00000001       0.00000022      19.95723425        4      -0.00012846       0.00001296       0.01511906
Pt       2.80721397      -0.00000009      19.95723437        4      -0.00038572      -0.00013442       0.01542131
Pt       5.61442779      -0.00000006      19.95723442        4       0.00031012      -0.00026085       0.01541255
Pt       1.40360720       2.43111836      19.95723428        4       0.00046582      -0.00035185       0.01529625
Pt       4.21082081       2.43111834      19.95723435        4       0.00007510       0.00039943       0.01542462
Pt       7.01803481       2.43111842      19.95723424        4      -0.00053959      -0.00022802       0.01529707
Pt       2.80721405       4.86223723      19.95723396        4       0.00005498      -0.00012514       0.01512347
Pt       5.61442805       4.86223729      19.95723414        4       0.00007635       0.00010381       0.01512407
Pt       8.42164141       4.86223719      19.95723428        4       0.00007424       0.00058161       0.01529735
Pt       1.40360726       0.81037260      22.29206791        3      -0.00061979      -0.00026312      -0.04364496
Pt       4.21082130       0.81037249      22.29206785        3      -0.00000331       0.00000559      -0.04625798
Pt       7.01803472       0.81037257      22.29206783        3       0.00073671      -0.00051743      -0.04379930
Pt       2.80721450       3.24149124      22.29206777        3       0.00008031       0.00089278      -0.04380866
Pt       5.61442762       3.24149124      22.29206789        3       0.00008457       0.00066823      -0.04364836
Pt       8.42164156       3.24149128      22.29206809        3       0.00000604      -0.00000415      -0.04458657
Pt       4.21082092       5.67260996      22.29206799        3       0.00000076       0.00000283      -0.04814626
Pt       7.01803487       5.67261037      22.29206782        3      -0.00082078      -0.00038331      -0.04379777
Pt       9.82524820       5.67261064      22.29206809        3       0.00054850      -0.00042197      -0.04363106
Pt      -0.00000052       1.62074570      24.58417379        2       0.00043941      -0.00858814       0.01207875
Pt       2.80721442       1.62074548      24.58417394        2       0.00298806      -0.00188722       0.02919923
Pt       5.61442780       1.62074537      24.58417373        2      -0.00311338      -0.00167493       0.02921596
Pt       1.40360637       4.05186438      24.58417386        2       0.00719935       0.00467972       0.01203684
Pt       4.21082089       4.05186400      24.58417379        2       0.00044929      -0.00824426       0.02128961
Pt       7.01803504       4.05186405      24.58417405        2      -0.00764782       0.00392105       0.01207349
Pt       2.80721281       6.48298343      24.58417366        2      -0.00738288       0.00373656       0.02134963
Pt       5.61442797       6.48298326      24.58417386        2       0.00693562       0.00452870       0.02136707
Pt       8.42164223       6.48298340      24.58417377        2       0.00011444       0.00351764       0.02926583
Pt       0.00022226      -0.00418280      26.91513282        1      -0.00058532       0.02542609       0.00349641
Pt       2.80861389       0.00049919      26.91681940        1      -0.00442503      -0.00150096      -0.00616968
Pt       5.61328827       0.00095019      26.91682433        1       0.00355052      -0.00300758      -0.00618796
Pt       1.39973409       2.43329668      26.91019274        1       0.03383249      -0.01956971       0.02486611
Pt       4.21055471       2.42967425      26.91680687        1       0.00090331       0.00452787      -0.00612254
Pt       7.02184536       2.43340183      26.91019977        1      -0.03378885      -0.01966664       0.02482196
Pt       2.81071548       4.86452206      26.91513252        1      -0.02170571      -0.01317447       0.00353298
Pt       5.61069554       4.86413691      26.91513421        1       0.02231796      -0.01214399       0.00351165
Pt       8.42170409       4.85779098      26.91020719        1      -0.00009740       0.03914354       0.02482998
C        4.21082666       5.67260388      32.16521758        0      -0.00000290      -0.00000886       0.01166909
O        4.21081860       5.67260831      33.34643143        0       0.00000125       0.00000377       0.00269694
O        4.21083447       5.67259881      30.98479195        0       0.00000184       0.00000447      -0.00501627
