39
Lattice="8.421641763931781 0.0 0.0 4.2108208819658905 7.293355709136913 0.0 0.0 0.0 46.87624170604845" Properties=species:S:1:pos:R:3:tags:I:1:forces:R:3 charge=0 spin=0 energy=-209.36741637324292 free_energy=-209.36741637324292 stress="0.010531274601817131 -6.080440151379207e-09 -9.516412102783534e-10 -6.080440151379207e-09 0.010531271807849407 1.0373987002765261e-08 -9.516412102783534e-10 1.0373987002765261e-08 2.6400999558973126e-05" pbc="T T T"
Pt      -0.00000001       0.00000022      19.95723425        4      -0.00006404      -0.00034059       0.01517027
Pt       2.80721397      -0.00000009      19.95723437        4       0.00002358      -0.00001354       0.01532500
Pt       5.61442779      -0.00000006      19.95723442        4       0.00000069       0.00003370       0.01531745
Pt       1.40360720       2.43111836      19.95723428        4      -0.00045212       0.00011930       0.01533677
Pt       4.21082081       2.43111834      19.95723435        4      -0.00002464      -0.00001448       0.01533049
Pt       7.01803481       2.43111842      19.95723424        4       0.00032767       0.00033001       0.01533575
Pt       2.80721405       4.86223723      19.95723396        4       0.00032602       0.00010739       0.01516966
Pt       5.61442805       4.86223729      19.95723414        4      -0.00025958       0.00022317       0.01516716
Pt       8.42164141       4.86223719      19.95723428        4       0.00012386      -0.00044927       0.01532899
Pt       1.40360726       0.81037260      22.29206791        3       0.00035192       0.00039099      -0.04640675
Pt       4.21082130       0.81037249      22.29206785        3      -0.00000263       0.00000501      -0.04853082
Pt       7.01803472       0.81037257      22.29206783        3      -0.00049529      -0.00010662      -0.04641716
Pt       2.80721450       3.24149124      22.29206777        3       0.00034103      -0.00037494      -0.04642988
Pt       5.61442762       3.24149124      22.29206789        3       0.00016251      -0.00049882      -0.04641221
Pt       8.42164156       3.24149128      22.29206809        3       0.00000367      -0.00000062      -0.03999681
Pt       4.21082092       5.67260996      22.29206799        3      -0.00000239       0.00000203      -0.04141559
Pt       7.01803487       5.67261037      22.29206782        3       0.00014652       0.00047800      -0.04643614
Pt       9.82524820       5.67261064      22.29206809        3      -0.00050572       0.00009412      -0.04641351
Pt      -0.00000052       1.62074570      24.58417379        2       0.00026051       0.00630599       0.06049873
Pt       2.80721442       1.62074548      24.58417394        2      -0.00813321       0.00407097       0.03664985
Pt       5.61442780       1.62074537      24.58417373        2       0.00756693       0.00503468       0.03661276
Pt       1.40360637       4.05186438      24.58417386        2      -0.00557702      -0.00292840       0.06057775
Pt       4.21082089       4.05186400      24.58417379        2       0.00017566       0.01346410       0.04236644
Pt       7.01803504       4.05186405      24.58417405        2       0.00533004      -0.00334702       0.06055210
Pt       2.80721281       6.48298343      24.58417366        2       0.01157082      -0.00689840       0.04235791
Pt       5.61442797       6.48298326      24.58417386        2      -0.01174232      -0.00657047       0.04236700
Pt       8.42164223       6.48298340      24.58417377        2       0.00054354      -0.00908294       0.03669136
Pt       0.00028915       0.00336522      26.92235347        1      -0.00095528      -0.02340352      -0.02661988
Pt       2.80444819      -0.00220873      26.91246931        1       0.01441559       0.01101826       0.01316222
Pt       5.61772603      -0.00127131      26.91246513        1      -0.01676222       0.00691496       0.01318531
Pt       1.40507963       2.43012892      26.92333103        1      -0.01587885       0.00937266      -0.03335481
Pt       4.21028333       2.43461648      26.91247137        1       0.00232051      -0.01794083       0.01315003
Pt       7.01643497       2.43033741      26.92332397        1       0.01606384       0.00912426      -0.03334764
Pt       2.80416353       4.86082304      26.92235641        1       0.02067339       0.01080149      -0.02662433
Pt       5.61718828       4.86030906      26.92235601        1      -0.01973225       0.01253549      -0.02665014
Pt       8.42176188       4.86402635      26.92333591        1      -0.00014018      -0.01845624      -0.03339516
C        4.21082220       5.67259729      32.38240960        0      -0.00000061      -0.00000806      -0.02451136
O        4.21082189       5.67261881      33.56352287        0       0.00000006       0.00000440       0.01247223
O        4.21082226       5.67257472      31.20190679        0       0.00000005       0.00000381       0.00483714
