39
Lattice="8.421641763931781 0.0 0.0 4.2108208819658905 7.293355709136913 0.0 0.0 0.0 46.87624170604845" Properties=species:S:1:pos:R:3:tags:I:1:forces:R:3 charge=0 spin=0 energy=-209.36792277430493 free_energy=-209.36792277430493 stress="0.010428355075418949 -1.7863712731269743e-09 -1.1852643311272004e-08 -1.7863712731269743e-09 0.010428396053612232 1.2244005631600885e-07 -1.1852643311272004e-08 1.2244005631600885e-07 -0.00019064595107920468" pbc="T T T"
Pt      -0.00000001       0.00000022      19.95723425        4      -0.00007218      -0.00039295       0.01513191
Pt       2.80721397      -0.00000009      19.95723437        4      -0.00014239      -0.00000880       0.01537411
Pt       5.61442779      -0.00000006      19.95723442        4       0.00008056      -0.00010997       0.01536344
Pt       1.40360720       2.43111836      19.95723428        4       0.00036313      -0.00022530       0.01530047
Pt       4.21082081       2.43111834      19.95723435        4       0.00006037       0.00012433       0.01538064
Pt       7.01803481       2.43111842      19.95723424        4      -0.00037948      -0.00020275       0.01529934
Pt       2.80721405       4.86223723      19.95723396        4       0.00037850       0.00012628       0.01513880
Pt       5.61442805       4.86223729      19.95723414        4      -0.00030480       0.00025749       0.01513933
Pt       8.42164141       4.86223719      19.95723428        4       0.00001535       0.00043046       0.01529875
Pt       1.40360726       0.81037260      22.29206791        3      -0.00099901       0.00012976      -0.04460637
Pt       4.21082130       0.81037249      22.29206785        3      -0.00000426       0.00000760      -0.04279491
Pt       7.01803472       0.81037257      22.29206783        3       0.00106986       0.00007639      -0.04462940
Pt       2.80721450       3.24149124      22.29206777        3      -0.00060171       0.00089454      -0.04462753
Pt       5.61442762       3.24149124      22.29206789        3       0.00060546       0.00080154      -0.04459781
Pt       8.42164156       3.24149128      22.29206809        3       0.00000345       0.00000192      -0.04599784
Pt       4.21082092       5.67260996      22.29206799        3      -0.00000395       0.00000558      -0.04482539
Pt       7.01803487       5.67261037      22.29206782        3      -0.00048061      -0.00096653      -0.04462374
Pt       9.82524820       5.67261064      22.29206809        3       0.00039760      -0.00093765      -0.04459130
Pt      -0.00000052       1.62074570      24.58417379        2       0.00051474      -0.01391235       0.01144660
Pt       2.80721442       1.62074548      24.58417394        2       0.00931528      -0.00534077       0.01952022
Pt       5.61442780       1.62074537      24.58417373        2      -0.00928100      -0.00538828       0.01951026
Pt       1.40360637       4.05186438      24.58417386        2       0.01179746       0.00740838       0.01146334
Pt       4.21082089       4.05186400      24.58417379        2       0.00035947       0.00120388       0.03141550
Pt       7.01803504       4.05186405      24.58417405        2      -0.01230500       0.00653908       0.01146888
Pt       2.80721281       6.48298343      24.58417366        2       0.00085092      -0.00091665       0.03145024
Pt       5.61442797       6.48298326      24.58417386        2      -0.00119985      -0.00028584       0.03146445
Pt       8.42164223       6.48298340      24.58417377        2      -0.00003757       0.01072131       0.01958283
Pt       0.00013435      -0.00242424      26.91972917        1      -0.00038452       0.00843219      -0.01636266
Pt       2.80635350      -0.00073406      26.91593339        1       0.00604506       0.00407509      -0.00062513
Pt       5.61549229      -0.00038160      26.91593463        1      -0.00653787       0.00318897      -0.00064173
Pt       1.40340641       2.43100568      26.90646590        1       0.00738391      -0.00356709       0.03990280
Pt       4.21061618       2.43223447      26.91593136        1       0.00051116      -0.00725745      -0.00061404
Pt       7.01803370       2.43135647      26.90646738        1      -0.00676112      -0.00466630       0.03989249
Pt       2.80924756       4.86356515      26.91973731        1      -0.00713289      -0.00455345      -0.01638388
Pt       5.61226206       4.86333523      26.91973846        1       0.00751740      -0.00387561      -0.01638299
Pt       8.42184503       4.86212025      26.90647732        1      -0.00064119       0.00818339       0.03985890
C        4.21081904       5.67260501      32.18267695        0      -0.00000665      -0.00000044       0.03663595
O        4.21082867       5.67261802      33.36388985        0       0.00000357       0.00000091       0.00519922
O        4.21080863       5.67259174      31.00255983        0       0.00000285      -0.00000086      -0.03393367
