39
Lattice="8.421641763931781 0.0 0.0 4.2108208819658905 7.293355709136913 0.0 0.0 0.0 46.87624170604845" Properties=species:S:1:pos:R:3:tags:I:1:forces:R:3 charge=0 spin=0 energy=-209.3678388509651 free_energy=-209.3678388509651 stress="0.010427610948681831 -8.274624541115827e-09 9.95954430038637e-09 -8.274624541115827e-09 0.010427601635456085 -4.7715977835594e-09 9.95954430038637e-09 -4.7715977835594e-09 -0.00017994343943428248" pbc="T T T"
Pt      -0.00000001       0.00000022      19.95723425        4      -0.00012864       0.00001309       0.01511855
Pt       2.80721397      -0.00000009      19.95723437        4      -0.00038556      -0.00013409       0.01542133
Pt       5.61442779      -0.00000006      19.95723442        4       0.00030978      -0.00026112       0.01541217
Pt       1.40360720       2.43111836      19.95723428        4       0.00046563      -0.00035172       0.01529599
Pt       4.21082081       2.43111834      19.95723435        4       0.00007488       0.00039904       0.01542466
Pt       7.01803481       2.43111842      19.95723424        4      -0.00053910      -0.00022763       0.01529754
Pt       2.80721405       4.86223723      19.95723396        4       0.00005477      -0.00012487       0.01512337
Pt       5.61442805       4.86223729      19.95723414        4       0.00007699       0.00010411       0.01512447
Pt       8.42164141       4.86223719      19.95723428        4       0.00007402       0.00058093       0.01529809
Pt       1.40360726       0.81037260      22.29206791        3      -0.00062111      -0.00026209      -0.04364669
Pt       4.21082130       0.81037249      22.29206785        3      -0.00000356       0.00000737      -0.04625845
Pt       7.01803472       0.81037257      22.29206783        3       0.00073566      -0.00051798      -0.04380021
Pt       2.80721450       3.24149124      22.29206777        3       0.00008043       0.00089488      -0.04380938
Pt       5.61442762       3.24149124      22.29206789        3       0.00008315       0.00066742      -0.04364941
Pt       8.42164156       3.24149128      22.29206809        3       0.00000517      -0.00000347      -0.04458007
Pt       4.21082092       5.67260996      22.29206799        3      -0.00000050       0.00000345      -0.04814406
Pt       7.01803487       5.67261037      22.29206782        3      -0.00082260      -0.00038233      -0.04379973
Pt       9.82524820       5.67261064      22.29206809        3       0.00054904      -0.00041992      -0.04363178
Pt      -0.00000052       1.62074570      24.58417379        2       0.00043591      -0.00857114       0.01209611
Pt       2.80721442       1.62074548      24.58417394        2       0.00297859      -0.00188198       0.02919811
Pt       5.61442780       1.62074537      24.58417373        2      -0.00310082      -0.00167269       0.02921209
Pt       1.40360637       4.05186438      24.58417386        2       0.00719016       0.00466982       0.01205234
Pt       4.21082089       4.05186400      24.58417379        2       0.00044852      -0.00823841       0.02128742
Pt       7.01803504       4.05186405      24.58417405        2      -0.00763255       0.00391795       0.01208977
Pt       2.80721281       6.48298343      24.58417366        2      -0.00737480       0.00373748       0.02134692
Pt       5.61442797       6.48298326      24.58417386        2       0.00693362       0.00452582       0.02136395
Pt       8.42164223       6.48298340      24.58417377        2       0.00011327       0.00351197       0.02926145
Pt       0.00022247      -0.00417775      26.91513049        1      -0.00058478       0.02539198       0.00350287
Pt       2.80861243       0.00049825      26.91681790        1      -0.00442016      -0.00150116      -0.00612411
Pt       5.61328857       0.00095005      26.91682169        1       0.00354804      -0.00300706      -0.00617341
Pt       1.39973763       2.43329416      26.91019931        1       0.03379687      -0.01954855       0.02482839
Pt       4.21055464       2.42967480      26.91680399        1       0.00089689       0.00452713      -0.00610338
Pt       7.02184168       2.43339955      26.91020575        1      -0.03374479      -0.01964520       0.02475470
Pt       2.81071112       4.86451972      26.91513109        1      -0.02167814      -0.01316497       0.00353750
Pt       5.61070002       4.86413452      26.91513231        1       0.02228620      -0.01213029       0.00351884
Pt       8.42170418       4.85779531      26.91021354        1      -0.00010066       0.03909404       0.02480296
C        4.21082689       5.67260388      32.16521074        0      -0.00000295      -0.00001173       0.01150206
O        4.21081835       5.67260801      33.34642426        0       0.00000135       0.00000530       0.00269227
O        4.21083483       5.67259886      30.98478325        0       0.00000163       0.00000620      -0.00484299
