39
Lattice="8.421641763931781 0.0 0.0 4.2108208819658905 7.293355709136913 0.0 0.0 0.0 46.87624170604845" Properties=species:S:1:pos:R:3:tags:I:1:forces:R:3 charge=0 spin=0 energy=-209.36830138300854 free_energy=-209.36830138300854 stress="0.010387222282588482 -1.739945609813276e-08 -1.2254490755481129e-08 -1.739945609813276e-08 0.01038727629929781 -7.38224503749052e-09 -1.2254490755481129e-08 -7.38224503749052e-09 -0.0002446418802719563" pbc="T T T"
Pt      -0.00000001       0.00000022      19.95723425        4      -0.00020424       0.00007586       0.01512063
Pt       2.80721397      -0.00000009      19.95723437        4       0.00014056       0.00022998       0.01525246
Pt       5.61442779      -0.00000006      19.95723442        4      -0.00026896       0.00001417       0.01524381
Pt       1.40360720       2.43111836      19.95723428        4      -0.00004374      -0.00002452       0.01524608
Pt       4.21082081       2.43111834      19.95723435        4       0.00012620      -0.00023573       0.01525108
Pt       7.01803481       2.43111842      19.95723424        4      -0.00000269       0.00005241       0.01524633
Pt       2.80721405       4.86223723      19.95723396        4       0.00003812      -0.00022218       0.01512112
Pt       5.61442805       4.86223729      19.95723414        4       0.00016839       0.00013855       0.01512101
Pt       8.42164141       4.86223719      19.95723428        4       0.00004545      -0.00002517       0.01524775
Pt       1.40360726       0.81037260      22.29206791        3      -0.00041295      -0.00066455      -0.04503538
Pt       4.21082130       0.81037249      22.29206785        3      -0.00000268       0.00001105      -0.04398170
Pt       7.01803472       0.81037257      22.29206783        3       0.00056295      -0.00125436      -0.04489116
Pt       2.80721450       3.24149124      22.29206777        3       0.00080804       0.00112283      -0.04490610
Pt       5.61442762       3.24149124      22.29206789        3      -0.00036977       0.00069462      -0.04504082
Pt       8.42164156       3.24149128      22.29206809        3       0.00000336       0.00000000      -0.03835555
Pt       4.21082092       5.67260996      22.29206799        3      -0.00000031       0.00000630      -0.04901895
Pt       7.01803487       5.67261037      22.29206782        3      -0.00137927       0.00013913      -0.04489470
Pt       9.82524820       5.67261064      22.29206809        3       0.00079171      -0.00003379      -0.04502752
Pt      -0.00000052       1.62074570      24.58417379        2       0.00048607       0.00724169       0.00642817
Pt       2.80721442       1.62074548      24.58417394        2       0.00260102      -0.00159234       0.01547676
Pt       5.61442780       1.62074537      24.58417373        2      -0.00269219      -0.00144544       0.01546441
Pt       1.40360637       4.05186438      24.58417386        2      -0.00650924      -0.00320495       0.00642763
Pt       4.21082089       4.05186400      24.58417379        2      -0.00024463      -0.00744192       0.01021186
Pt       7.01803504       4.05186405      24.58417405        2       0.00601373      -0.00403787       0.00643584
Pt       2.80721281       6.48298343      24.58417366        2      -0.00630080       0.00391812       0.01022662
Pt       5.61442797       6.48298326      24.58417386        2       0.00656482       0.00349647       0.01024188
Pt       8.42164223       6.48298340      24.58417377        2       0.00006656       0.00304090       0.01550031
Pt       0.00123060       0.00271548      26.90915709        1      -0.00485685      -0.02161281       0.02693952
Pt       2.80913629       0.00052564      26.91496820        1      -0.01132590      -0.00476065       0.00725956
Pt       5.61300439       0.00139446      26.91496707        1       0.00975572      -0.00744939       0.00730252
Pt       1.40490577       2.43069029      26.91141377        1      -0.00565539       0.00242522       0.02083260
Pt       4.21031667       2.42918425      26.91497419        1       0.00154134       0.01219684       0.00724699
Pt       7.01701497       2.43019748      26.91141371        1       0.00495608       0.00368638       0.02082238
Pt       2.80423780       4.86193561      26.90915934        1       0.02112952       0.00659884       0.02699791
Pt       5.61616975       4.85980374      26.90916106        1      -0.01625210       0.01503126       0.02694717
Pt       8.42135496       4.86357096      26.91141244        1       0.00072194      -0.00611457       0.02087441
C        4.21083778       5.67267213      32.22501825        0       0.00007552       0.00034094       0.00550870
O        4.21085292       5.67276238      33.40621835        0      -0.00003752      -0.00017020       0.00422170
O        4.21083439       5.67263658      31.04460442        0      -0.00003794      -0.00017074      -0.00706537
