39
Lattice="8.421641763931781 0.0 0.0 4.2108208819658905 7.293355709136913 0.0 0.0 0.0 46.87624170604845" Properties=species:S:1:pos:R:3:tags:I:1:forces:R:3 charge=0 spin=0 energy=-209.36830138300854 free_energy=-209.36830138300854 stress="0.01038726232945919 -1.9868892309204966e-08 -1.177321795609032e-08 -1.9868892309204966e-08 0.010387321002781391 -7.524933565150604e-09 -1.177321795609032e-08 -7.524933565150604e-09 -0.00024465148453600705" pbc="T T T"
Pt      -0.00000001       0.00000022      19.95723425        4      -0.00020442       0.00007577       0.01512065
Pt       2.80721397      -0.00000009      19.95723437        4       0.00014109       0.00023016       0.01525257
Pt       5.61442779      -0.00000006      19.95723442        4      -0.00026907       0.00001450       0.01524396
Pt       1.40360720       2.43111836      19.95723428        4      -0.00004350      -0.00002465       0.01524635
Pt       4.21082081       2.43111834      19.95723435        4       0.00012632      -0.00023608       0.01525095
Pt       7.01803481       2.43111842      19.95723424        4      -0.00000313       0.00005227       0.01524671
Pt       2.80721405       4.86223723      19.95723396        4       0.00003827      -0.00022211       0.01512138
Pt       5.61442805       4.86223729      19.95723414        4       0.00016822       0.00013817       0.01512110
Pt       8.42164141       4.86223719      19.95723428        4       0.00004550      -0.00002480       0.01524809
Pt       1.40360726       0.81037260      22.29206791        3      -0.00041307      -0.00066464      -0.04503573
Pt       4.21082130       0.81037249      22.29206785        3      -0.00000236       0.00001091      -0.04398192
Pt       7.01803472       0.81037257      22.29206783        3       0.00056290      -0.00125434      -0.04489122
Pt       2.80721450       3.24149124      22.29206777        3       0.00080769       0.00112247      -0.04490526
Pt       5.61442762       3.24149124      22.29206789        3      -0.00036919       0.00069465      -0.04504009
Pt       8.42164156       3.24149128      22.29206809        3       0.00000365       0.00000045      -0.03835705
Pt       4.21082092       5.67260996      22.29206799        3      -0.00000010       0.00000607      -0.04901797
Pt       7.01803487       5.67261037      22.29206782        3      -0.00137873       0.00013890      -0.04489613
Pt       9.82524820       5.67261064      22.29206809        3       0.00079110      -0.00003398      -0.04502730
Pt      -0.00000052       1.62074570      24.58417379        2       0.00048547       0.00724186       0.00645596
Pt       2.80721442       1.62074548      24.58417394        2       0.00259831      -0.00158855       0.01547892
Pt       5.61442780       1.62074537      24.58417373        2      -0.00269027      -0.00144325       0.01546917
Pt       1.40360637       4.05186438      24.58417386        2      -0.00650822      -0.00320720       0.00645134
Pt       4.21082089       4.05186400      24.58417379        2      -0.00024350      -0.00744006       0.01021870
Pt       7.01803504       4.05186405      24.58417405        2       0.00601154      -0.00403954       0.00646023
Pt       2.80721281       6.48298343      24.58417366        2      -0.00629907       0.00391636       0.01023126
Pt       5.61442797       6.48298326      24.58417386        2       0.00656078       0.00349598       0.01024665
Pt       8.42164223       6.48298340      24.58417377        2       0.00006896       0.00303916       0.01550023
Pt       0.00122970       0.00271166      26.90916117        1      -0.00485173      -0.02157925       0.02692032
Pt       2.80913667       0.00052614      26.91496670        1      -0.01133011      -0.00476315       0.00726877
Pt       5.61300452       0.00139427      26.91496620        1       0.00975588      -0.00744757       0.00730365
Pt       1.40490814       2.43068880      26.91141631        1      -0.00568058       0.00243802       0.02080859
Pt       4.21031668       2.42918448      26.91497433        1       0.00154203       0.01219963       0.00724720
Pt       7.01701225       2.43019610      26.91141671        1       0.00498022       0.00369997       0.02079835
Pt       2.80424100       4.86193688      26.90916333        1       0.02110424       0.00658479       0.02697781
Pt       5.61616698       4.85980625      26.90916503        1      -0.01622770       0.01501232       0.02692851
Pt       8.42135493       4.86357382      26.91141527        1       0.00072222      -0.00614254       0.02086010
C        4.21083784       5.67267274      32.22494346        0       0.00007173       0.00034092       0.00434419
O        4.21085336       5.67276167      33.40613835        0      -0.00003558      -0.00017057       0.00489914
O        4.21083359       5.67263844      31.04452646        0      -0.00003588      -0.00017073      -0.00656834
