39
Lattice="8.421641763931781 0.0 0.0 4.2108208819658905 7.293355709136913 0.0 0.0 0.0 46.87624170604845" Properties=species:S:1:pos:R:3:tags:I:1:forces:R:3 charge=0 spin=0 energy=-209.36792468165356 free_energy=-209.36792468165356 stress="0.010428355075418949 -4.289983923655427e-09 -1.0865411681493242e-08 -4.289983923655427e-09 0.01042838767170906 1.2227432932832016e-07 -1.0865411681493242e-08 1.2227432932832016e-07 -0.00019104247621726245" pbc="T T T"
Pt      -0.00000001       0.00000022      19.95723425        4      -0.00007224      -0.00039291       0.01513164
Pt       2.80721397      -0.00000009      19.95723437        4      -0.00014245      -0.00000877       0.01537390
Pt       5.61442779      -0.00000006      19.95723442        4       0.00008070      -0.00011010       0.01536349
Pt       1.40360720       2.43111836      19.95723428        4       0.00036323      -0.00022537       0.01530040
Pt       4.21082081       2.43111834      19.95723435        4       0.00006053       0.00012429       0.01538056
Pt       7.01803481       2.43111842      19.95723424        4      -0.00037970      -0.00020271       0.01529922
Pt       2.80721405       4.86223723      19.95723396        4       0.00037842       0.00012635       0.01513864
Pt       5.61442805       4.86223729      19.95723414        4      -0.00030484       0.00025756       0.01513921
Pt       8.42164141       4.86223719      19.95723428        4       0.00001549       0.00043067       0.01529883
Pt       1.40360726       0.81037260      22.29206791        3      -0.00099914       0.00013008      -0.04460570
Pt       4.21082130       0.81037249      22.29206785        3      -0.00000406       0.00000788      -0.04279402
Pt       7.01803472       0.81037257      22.29206783        3       0.00106981       0.00007653      -0.04462892
Pt       2.80721450       3.24149124      22.29206777        3      -0.00060182       0.00089470      -0.04462730
Pt       5.61442762       3.24149124      22.29206789        3       0.00060581       0.00080160      -0.04459744
Pt       8.42164156       3.24149128      22.29206809        3       0.00000328       0.00000190      -0.04599972
Pt       4.21082092       5.67260996      22.29206799        3      -0.00000391       0.00000511      -0.04482430
Pt       7.01803487       5.67261037      22.29206782        3      -0.00048074      -0.00096708      -0.04462412
Pt       9.82524820       5.67261064      22.29206809        3       0.00039761      -0.00093795      -0.04459109
Pt      -0.00000052       1.62074570      24.58417379        2       0.00051732      -0.01391407       0.01144533
Pt       2.80721442       1.62074548      24.58417394        2       0.00931498      -0.00534070       0.01952082
Pt       5.61442780       1.62074537      24.58417373        2      -0.00928283      -0.00538924       0.01950747
Pt       1.40360637       4.05186438      24.58417386        2       0.01179894       0.00741008       0.01147025
Pt       4.21082089       4.05186400      24.58417379        2       0.00035728       0.00120414       0.03141330
Pt       7.01803504       4.05186405      24.58417405        2      -0.01230600       0.00654117       0.01146740
Pt       2.80721281       6.48298343      24.58417366        2       0.00084968      -0.00091819       0.03144924
Pt       5.61442797       6.48298326      24.58417386        2      -0.00119886      -0.00028534       0.03146091
Pt       8.42164223       6.48298340      24.58417377        2      -0.00003684       0.01072158       0.01958375
Pt       0.00013441      -0.00242599      26.91972997        1      -0.00038438       0.00844706      -0.01635926
Pt       2.80635309      -0.00073423      26.91593327        1       0.00604988       0.00407866      -0.00062400
Pt       5.61549314      -0.00038183      26.91593481        1      -0.00654664       0.00318769      -0.00064024
Pt       1.40340707       2.43100526      26.90646533        1       0.00738307      -0.00356227       0.03989983
Pt       4.21061622       2.43223513      26.91593135        1       0.00050913      -0.00726374      -0.00061374
Pt       7.01803287       2.43135614      26.90646639        1      -0.00675743      -0.00466297       0.03989991
Pt       2.80924934       4.86356596      26.91973840        1      -0.00715056      -0.00456201      -0.01639075
Pt       5.61226041       4.86333595      26.91973957        1       0.00753048      -0.00388196      -0.01638119
Pt       8.42184478       4.86212120      26.90647684        1      -0.00063334       0.00817875       0.03985683
C        4.21081895       5.67260473      32.18268022        0      -0.00000891      -0.00000064       0.03547088
O        4.21082806       5.67261809      33.36388369        0       0.00000476       0.00000108       0.00626292
O        4.21080822       5.67259088      31.00256215        0       0.00000401      -0.00000076      -0.03383281
