39
Lattice="8.421641763931781 0.0 0.0 4.2108208819658905 7.293355709136913 0.0 0.0 0.0 46.87624170604845" Properties=species:S:1:pos:R:3:tags:I:1:forces:R:3 charge=0 spin=0 energy=-209.3683042440315 free_energy=-209.3683042440315 stress="0.01038726419210434 -1.7554516063000847e-08 -1.277461425530646e-08 -1.7554516063000847e-08 0.010387315414845943 -4.666670605502077e-09 -1.277461425530646e-08 -4.666670605502077e-09 -0.0002448960149195045" pbc="T T T"
Pt      -0.00000001       0.00000022      19.95723425        4      -0.00020443       0.00007584       0.01512067
Pt       2.80721397      -0.00000009      19.95723437        4       0.00014048       0.00022993       0.01525271
Pt       5.61442779      -0.00000006      19.95723442        4      -0.00026888       0.00001427       0.01524398
Pt       1.40360720       2.43111836      19.95723428        4      -0.00004353      -0.00002473       0.01524625
Pt       4.21082081       2.43111834      19.95723435        4       0.00012615      -0.00023569       0.01525085
Pt       7.01803481       2.43111842      19.95723424        4      -0.00000299       0.00005224       0.01524665
Pt       2.80721405       4.86223723      19.95723396        4       0.00003812      -0.00022226       0.01512142
Pt       5.61442805       4.86223729      19.95723414        4       0.00016839       0.00013831       0.01512133
Pt       8.42164141       4.86223719      19.95723428        4       0.00004552      -0.00002499       0.01524801
Pt       1.40360726       0.81037260      22.29206791        3      -0.00041259      -0.00066430      -0.04503580
Pt       4.21082130       0.81037249      22.29206785        3      -0.00000247       0.00001119      -0.04398379
Pt       7.01803472       0.81037257      22.29206783        3       0.00056286      -0.00125369      -0.04489123
Pt       2.80721450       3.24149124      22.29206777        3       0.00080830       0.00112261      -0.04490506
Pt       5.61442762       3.24149124      22.29206789        3      -0.00036981       0.00069466      -0.04503978
Pt       8.42164156       3.24149128      22.29206809        3       0.00000326       0.00000037      -0.03835712
Pt       4.21082092       5.67260996      22.29206799        3      -0.00000021       0.00000609      -0.04901819
Pt       7.01803487       5.67261037      22.29206782        3      -0.00137887       0.00013914      -0.04489510
Pt       9.82524820       5.67261064      22.29206809        3       0.00079156      -0.00003382      -0.04502709
Pt      -0.00000052       1.62074570      24.58417379        2       0.00048538       0.00724046       0.00644684
Pt       2.80721442       1.62074548      24.58417394        2       0.00259641      -0.00158747       0.01548138
Pt       5.61442780       1.62074537      24.58417373        2      -0.00268838      -0.00144204       0.01547182
Pt       1.40360637       4.05186438      24.58417386        2      -0.00650583      -0.00320649       0.00644391
Pt       4.21082089       4.05186400      24.58417379        2      -0.00024339      -0.00743979       0.01022210
Pt       7.01803504       4.05186405      24.58417405        2       0.00600986      -0.00403924       0.00645388
Pt       2.80721281       6.48298343      24.58417366        2      -0.00629856       0.00391584       0.01023531
Pt       5.61442797       6.48298326      24.58417386        2       0.00655981       0.00349573       0.01024942
Pt       8.42164223       6.48298340      24.58417377        2       0.00006847       0.00303745       0.01550351
Pt       0.00122953       0.00271386      26.90916117        1      -0.00485310      -0.02159742       0.02692035
Pt       2.80913633       0.00052645      26.91496749        1      -0.01133055      -0.00476531       0.00726671
Pt       5.61300369       0.00139473      26.91496706        1       0.00976069      -0.00744985       0.00730115
Pt       1.40490497       2.43069071      26.91141617        1      -0.00565474       0.00242395       0.02081275
Pt       4.21031666       2.42918372      26.91497447        1       0.00154225       0.01220345       0.00724472
Pt       7.01701532       2.43019761      26.91141692        1       0.00495336       0.00368669       0.02080238
Pt       2.80423942       4.86193606      26.90916256        1       0.02111516       0.00659448       0.02697569
Pt       5.61616868       4.85980546      26.90916433        1      -0.01624029       0.01501803       0.02692639
Pt       8.42135514       4.86357070      26.91141417        1       0.00072222      -0.00611381       0.02086519
C        4.21083816       5.67267328      32.22493276        0       0.00007829       0.00034176       0.00618734
O        4.21085474       5.67276126      33.40613477        0      -0.00003882      -0.00017086       0.00426513
O        4.21083448       5.67263939      31.04452813        0      -0.00003922      -0.00017081      -0.00777470
