39
Lattice="8.421641763931781 0.0 0.0 4.2108208819658905 7.293355709136913 0.0 0.0 0.0 46.87624170604845" Properties=species:S:1:pos:R:3:tags:I:1:forces:R:3 charge=0 spin=0 energy=-209.3674154195686 free_energy=-209.3674154195686 stress="0.010531281121075153 -1.5095090732941685e-09 -2.9845403926032077e-09 -1.5095090732941685e-09 0.010531284846365452 1.1347026429575635e-08 -2.9845403926032077e-09 1.1347026429575635e-08 2.6411462386022322e-05" pbc="T T T"
Pt      -0.00000001       0.00000022      19.95723425        4      -0.00006387      -0.00034062       0.01517042
Pt       2.80721397      -0.00000009      19.95723437        4       0.00002340      -0.00001356       0.01532500
Pt       5.61442779      -0.00000006      19.95723442        4       0.00000075       0.00003357       0.01531749
Pt       1.40360720       2.43111836      19.95723428        4      -0.00045195       0.00011924       0.01533671
Pt       4.21082081       2.43111834      19.95723435        4      -0.00002468      -0.00001440       0.01533047
Pt       7.01803481       2.43111842      19.95723424        4       0.00032750       0.00033009       0.01533581
Pt       2.80721405       4.86223723      19.95723396        4       0.00032602       0.00010737       0.01516966
Pt       5.61442805       4.86223729      19.95723414        4      -0.00025976       0.00022326       0.01516698
Pt       8.42164141       4.86223719      19.95723428        4       0.00012383      -0.00044917       0.01532909
Pt       1.40360726       0.81037260      22.29206791        3       0.00035168       0.00039098      -0.04640604
Pt       4.21082130       0.81037249      22.29206785        3      -0.00000237       0.00000532      -0.04853049
Pt       7.01803472       0.81037257      22.29206783        3      -0.00049524      -0.00010681      -0.04641723
Pt       2.80721450       3.24149124      22.29206777        3       0.00034077      -0.00037506      -0.04642990
Pt       5.61442762       3.24149124      22.29206789        3       0.00016268      -0.00049886      -0.04641237
Pt       8.42164156       3.24149128      22.29206809        3       0.00000360      -0.00000056      -0.03999812
Pt       4.21082092       5.67260996      22.29206799        3      -0.00000259       0.00000201      -0.04141500
Pt       7.01803487       5.67261037      22.29206782        3       0.00014692       0.00047801      -0.04643591
Pt       9.82524820       5.67261064      22.29206809        3      -0.00050564       0.00009405      -0.04641337
Pt      -0.00000052       1.62074570      24.58417379        2       0.00026052       0.00630573       0.06050100
Pt       2.80721442       1.62074548      24.58417394        2      -0.00813333       0.00407111       0.03665008
Pt       5.61442780       1.62074537      24.58417373        2       0.00756698       0.00503663       0.03661067
Pt       1.40360637       4.05186438      24.58417386        2      -0.00557543      -0.00292734       0.06058155
Pt       4.21082089       4.05186400      24.58417379        2       0.00017576       0.01346498       0.04236857
Pt       7.01803504       4.05186405      24.58417405        2       0.00532759      -0.00334567       0.06055639
Pt       2.80721281       6.48298343      24.58417366        2       0.01157224      -0.00690102       0.04235635
Pt       5.61442797       6.48298326      24.58417386        2      -0.01174161      -0.00657242       0.04236719
Pt       8.42164223       6.48298340      24.58417377        2       0.00054128      -0.00908422       0.03668985
Pt       0.00028946       0.00336374      26.92235419        1      -0.00095603      -0.02339402      -0.02662005
Pt       2.80444782      -0.00220895      26.91247009        1       0.01441737       0.01101680       0.01316216
Pt       5.61772599      -0.00127141      26.91246500        1      -0.01676311       0.00691408       0.01319392
Pt       1.40507970       2.43012892      26.92333119        1      -0.01588152       0.00937313      -0.03335589
Pt       4.21028320       2.43461658      26.91247141        1       0.00231998      -0.01794071       0.01315100
Pt       7.01643468       2.43033746      26.92332452        1       0.01606817       0.00912566      -0.03335012
Pt       2.80416456       4.86082325      26.92235689        1       0.02066571       0.01079884      -0.02663050
Pt       5.61718705       4.86030941      26.92235716        1      -0.01972414       0.01253249      -0.02665355
Pt       8.42176145       4.86402639      26.92333546        1      -0.00014171      -0.01845818      -0.03339660
C        4.21082254       5.67259763      32.38237344        0      -0.00000325      -0.00000615      -0.02451596
O        4.21082307       5.67261950      33.56348619        0       0.00000175       0.00000294       0.01247342
O        4.21082154       5.67257460      31.20187129        0       0.00000171       0.00000245       0.00483773
