39
Lattice="8.421641763931781 0.0 0.0 4.2108208819658905 7.293355709136913 0.0 0.0 0.0 46.87624170604845" Properties=species:S:1:pos:R:3:tags:I:1:forces:R:3 charge=0 spin=0 energy=-209.3682985219856 free_energy=-209.3682985219856 stress="0.010387294925749302 -1.981705288756075e-08 -1.2670128946012937e-08 -1.981705288756075e-08 0.01038734894245863 -6.962463494630811e-09 -1.2670128946012937e-08 -6.962463494630811e-09 -0.0002446006110403687" pbc="T T T"
Pt      -0.00000001       0.00000022      19.95723425        4      -0.00020434       0.00007589       0.01512063
Pt       2.80721397      -0.00000009      19.95723437        4       0.00014033       0.00022987       0.01525259
Pt       5.61442779      -0.00000006      19.95723442        4      -0.00026852       0.00001418       0.01524398
Pt       1.40360720       2.43111836      19.95723428        4      -0.00004391      -0.00002461       0.01524595
Pt       4.21082081       2.43111834      19.95723435        4       0.00012608      -0.00023541       0.01525098
Pt       7.01803481       2.43111842      19.95723424        4      -0.00000257       0.00005255       0.01524637
Pt       2.80721405       4.86223723      19.95723396        4       0.00003819      -0.00022233       0.01512144
Pt       5.61442805       4.86223729      19.95723414        4       0.00016844       0.00013838       0.01512112
Pt       8.42164141       4.86223719      19.95723428        4       0.00004563      -0.00002531       0.01524777
Pt       1.40360726       0.81037260      22.29206791        3      -0.00041276      -0.00066476      -0.04503616
Pt       4.21082130       0.81037249      22.29206785        3      -0.00000240       0.00001118      -0.04398666
Pt       7.01803472       0.81037257      22.29206783        3       0.00056248      -0.00125425      -0.04489135
Pt       2.80721450       3.24149124      22.29206777        3       0.00080822       0.00112235      -0.04490555
Pt       5.61442762       3.24149124      22.29206789        3      -0.00037020       0.00069435      -0.04503960
Pt       8.42164156       3.24149128      22.29206809        3       0.00000338       0.00000051      -0.03835475
Pt       4.21082092       5.67260996      22.29206799        3      -0.00000047       0.00000607      -0.04901754
Pt       7.01803487       5.67261037      22.29206782        3      -0.00137924       0.00013932      -0.04489595
Pt       9.82524820       5.67261064      22.29206809        3       0.00079135      -0.00003387      -0.04502749
Pt      -0.00000052       1.62074570      24.58417379        2       0.00048545       0.00723841       0.00644287
Pt       2.80721442       1.62074548      24.58417394        2       0.00259539      -0.00158611       0.01549523
Pt       5.61442780       1.62074537      24.58417373        2      -0.00268661      -0.00144113       0.01548447
Pt       1.40360637       4.05186438      24.58417386        2      -0.00650393      -0.00320536       0.00644067
Pt       4.21082089       4.05186400      24.58417379        2      -0.00024403      -0.00743657       0.01023979
Pt       7.01803504       4.05186405      24.58417405        2       0.00600840      -0.00403825       0.00645047
Pt       2.80721281       6.48298343      24.58417366        2      -0.00629569       0.00391507       0.01025178
Pt       5.61442797       6.48298326      24.58417386        2       0.00655775       0.00349408       0.01026568
Pt       8.42164223       6.48298340      24.58417377        2       0.00006847       0.00303517       0.01551605
Pt       0.00122949       0.00271803      26.90916184        1      -0.00485363      -0.02163360       0.02690962
Pt       2.80913663       0.00052655      26.91496804        1      -0.01133178      -0.00476427       0.00725490
Pt       5.61300334       0.00139482      26.91496789        1       0.00976407      -0.00745003       0.00728881
Pt       1.40490098       2.43069326      26.91141832        1      -0.00562056       0.00240463       0.02081190
Pt       4.21031692       2.42918359      26.91497597        1       0.00154043       0.01220628       0.00723234
Pt       7.01701965       2.43020001      26.91141926        1       0.00491895       0.00366727       0.02080162
Pt       2.80423600       4.86193425      26.90916386        1       0.02114796       0.00661058       0.02696411
Pt       5.61617243       4.85980356      26.90916623        1      -0.01627230       0.01503524       0.02691377
Pt       8.42135489       4.86356608      26.91141719        1       0.00072217      -0.00607561       0.02086370
C        4.21083849       5.67267271      32.22492391        0       0.00007493       0.00033844       0.00568650
O        4.21085473       5.67276237      33.40612329        0      -0.00003756      -0.00016897       0.00423196
O        4.21083410       5.67263703      31.04451137        0      -0.00003753      -0.00016921      -0.00724230
