39
Lattice="8.421641763931781 0.0 0.0 4.2108208819658905 7.293355709136913 0.0 0.0 0.0 46.87624170604845" Properties=species:S:1:pos:R:3:tags:I:1:forces:R:3 charge=0 spin=0 energy=-209.36830138300854 free_energy=-209.36830138300854 stress="0.010387248359620571 -1.854188802496992e-08 -1.3009719523893182e-08 -1.854188802496992e-08 0.010387308895587921 -5.6928213254536786e-09 -1.3009719523893182e-08 -5.6928213254536786e-09 -0.0002446844591759145" pbc="T T T"
Pt      -0.00000001       0.00000022      19.95723425        4      -0.00020430       0.00007574       0.01512063
Pt       2.80721397      -0.00000009      19.95723437        4       0.00014060       0.00022993       0.01525246
Pt       5.61442779      -0.00000006      19.95723442        4      -0.00026882       0.00001420       0.01524387
Pt       1.40360720       2.43111836      19.95723428        4      -0.00004357      -0.00002461       0.01524601
Pt       4.21082081       2.43111834      19.95723435        4       0.00012612      -0.00023562       0.01525102
Pt       7.01803481       2.43111842      19.95723424        4      -0.00000287       0.00005227       0.01524648
Pt       2.80721405       4.86223723      19.95723396        4       0.00003850      -0.00022234       0.01512129
Pt       5.61442805       4.86223729      19.95723414        4       0.00016814       0.00013831       0.01512104
Pt       8.42164141       4.86223719      19.95723428        4       0.00004559      -0.00002508       0.01524784
Pt       1.40360726       0.81037260      22.29206791        3      -0.00041363      -0.00066441      -0.04503607
Pt       4.21082130       0.81037249      22.29206785        3      -0.00000265       0.00001106      -0.04398344
Pt       7.01803472       0.81037257      22.29206783        3       0.00056322      -0.00125410      -0.04489076
Pt       2.80721450       3.24149124      22.29206777        3       0.00080776       0.00112266      -0.04490429
Pt       5.61442762       3.24149124      22.29206789        3      -0.00036940       0.00069480      -0.04503994
Pt       8.42164156       3.24149128      22.29206809        3       0.00000326       0.00000033      -0.03835686
Pt       4.21082092       5.67260996      22.29206799        3      -0.00000018       0.00000627      -0.04901770
Pt       7.01803487       5.67261037      22.29206782        3      -0.00137943       0.00013906      -0.04489509
Pt       9.82524820       5.67261064      22.29206809        3       0.00079133      -0.00003429      -0.04502700
Pt      -0.00000052       1.62074570      24.58417379        2       0.00048391       0.00723728       0.00643532
Pt       2.80721442       1.62074548      24.58417394        2       0.00260230      -0.00158811       0.01547858
Pt       5.61442780       1.62074537      24.58417373        2      -0.00269208      -0.00144181       0.01547214
Pt       1.40360637       4.05186438      24.58417386        2      -0.00650211      -0.00320191       0.00643567
Pt       4.21082089       4.05186400      24.58417379        2      -0.00024536      -0.00743938       0.01022733
Pt       7.01803504       4.05186405      24.58417405        2       0.00600806      -0.00403795       0.00644483
Pt       2.80721281       6.48298343      24.58417366        2      -0.00629835       0.00391356       0.01023827
Pt       5.61442797       6.48298326      24.58417386        2       0.00655939       0.00349506       0.01024901
Pt       8.42164223       6.48298340      24.58417377        2       0.00006928       0.00303943       0.01550070
Pt       0.00122972       0.00271443      26.90916081        1      -0.00485403      -0.02160545       0.02692107
Pt       2.80913639       0.00052654      26.91496744        1      -0.01132785      -0.00476233       0.00726711
Pt       5.61300403       0.00139464      26.91496650        1       0.00975739      -0.00744931       0.00730170
Pt       1.40490451       2.43069082      26.91141402        1      -0.00564719       0.00242364       0.02083313
Pt       4.21031684       2.42918479      26.91497574        1       0.00154349       0.01220001       0.00723713
Pt       7.01701587       2.43019821      26.91141513        1       0.00494575       0.00368343       0.02081298
Pt       2.80423897       4.86193611      26.90916381        1       0.02112465       0.00659663       0.02696829
Pt       5.61616927       4.85980545      26.90916440        1      -0.01625048       0.01502034       0.02692741
Pt       8.42135562       4.86357034      26.91141284        1       0.00072337      -0.00610679       0.02087486
C        4.21083818       5.67267176      32.22492046        0       0.00006333       0.00033204       0.00435118
O        4.21085032       5.67276129      33.40611793        0      -0.00003137      -0.00016609       0.00490457
O        4.21083660       5.67263491      31.04450498        0      -0.00003187      -0.00016623      -0.00658081
