39
Lattice="8.421641763931781 0.0 0.0 4.2108208819658905 7.293355709136913 0.0 0.0 0.0 46.87624170604845" Properties=species:S:1:pos:R:3:tags:I:1:forces:R:3 charge=0 spin=0 energy=-209.36792277430493 free_energy=-209.36792277430493 stress="0.010428346693515778 -2.0291723856757926e-09 -8.943302098884942e-09 -2.0291723856757926e-09 0.01042837742716074 1.2153454065355618e-07 -8.943302098884942e-09 1.2153454065355618e-07 -0.00019097224867437035" pbc="T T T"
Pt      -0.00000001       0.00000022      19.95723425        4      -0.00007217      -0.00039267       0.01513183
Pt       2.80721397      -0.00000009      19.95723437        4      -0.00014262      -0.00000873       0.01537409
Pt       5.61442779      -0.00000006      19.95723442        4       0.00008086      -0.00011029       0.01536344
Pt       1.40360720       2.43111836      19.95723428        4       0.00036323      -0.00022560       0.01530034
Pt       4.21082081       2.43111834      19.95723435        4       0.00006042       0.00012439       0.01538073
Pt       7.01803481       2.43111842      19.95723424        4      -0.00037968      -0.00020301       0.01529913
Pt       2.80721405       4.86223723      19.95723396        4       0.00037827       0.00012628       0.01513864
Pt       5.61442805       4.86223729      19.95723414        4      -0.00030456       0.00025732       0.01513904
Pt       8.42164141       4.86223719      19.95723428        4       0.00001521       0.00043077       0.01529866
Pt       1.40360726       0.81037260      22.29206791        3      -0.00099921       0.00012996      -0.04460438
Pt       4.21082130       0.81037249      22.29206785        3      -0.00000409       0.00000797      -0.04279452
Pt       7.01803472       0.81037257      22.29206783        3       0.00107012       0.00007658      -0.04462867
Pt       2.80721450       3.24149124      22.29206777        3      -0.00060188       0.00089430      -0.04462665
Pt       5.61442762       3.24149124      22.29206789        3       0.00060626       0.00080194      -0.04459733
Pt       8.42164156       3.24149128      22.29206809        3       0.00000375       0.00000175      -0.04600243
Pt       4.21082092       5.67260996      22.29206799        3      -0.00000407       0.00000549      -0.04482569
Pt       7.01803487       5.67261037      22.29206782        3      -0.00048021      -0.00096730      -0.04462343
Pt       9.82524820       5.67261064      22.29206809        3       0.00039802      -0.00093757      -0.04459080
Pt      -0.00000052       1.62074570      24.58417379        2       0.00051685      -0.01391732       0.01144382
Pt       2.80721442       1.62074548      24.58417394        2       0.00931255      -0.00533870       0.01952251
Pt       5.61442780       1.62074537      24.58417373        2      -0.00928153      -0.00538658       0.01950718
Pt       1.40360637       4.05186438      24.58417386        2       0.01180411       0.00741096       0.01146799
Pt       4.21082089       4.05186400      24.58417379        2       0.00035687       0.00120090       0.03141301
Pt       7.01803504       4.05186405      24.58417405        2      -0.01231092       0.00654222       0.01146553
Pt       2.80721281       6.48298343      24.58417366        2       0.00084938      -0.00091761       0.03144319
Pt       5.61442797       6.48298326      24.58417386        2      -0.00119653      -0.00028354       0.03145798
Pt       8.42164223       6.48298340      24.58417377        2      -0.00003857       0.01072095       0.01957932
Pt       0.00013449      -0.00242863      26.91973003        1      -0.00038316       0.00846713      -0.01635579
Pt       2.80635413      -0.00073351      26.91593347        1       0.00604090       0.00407779      -0.00062438
Pt       5.61549260      -0.00038106      26.91593387        1      -0.00654005       0.00318813      -0.00063246
Pt       1.40340403       2.43100617      26.90646540        1       0.00740231      -0.00356868       0.03989974
Pt       4.21061602       2.43223417      26.91593234        1       0.00050798      -0.00725461      -0.00061363
Pt       7.01803504       2.43135734      26.90646581        1      -0.00677314      -0.00467173       0.03989885
Pt       2.80925163       4.86356775      26.91973906        1      -0.00716620      -0.00457763      -0.01638933
Pt       5.61225809       4.86333784      26.91973964        1       0.00754618      -0.00389530      -0.01637913
Pt       8.42184478       4.86211930      26.90647587        1      -0.00063427       0.00819111       0.03986584
C        4.21081910       5.67260462      32.18273196        0      -0.00000576      -0.00000020       0.03596715
O        4.21082807       5.67261786      33.36393923        0       0.00000291       0.00000136       0.00591695
O        4.21080900       5.67259074      31.00261272        0       0.00000227      -0.00000021      -0.03398642
