39
Lattice="8.421641763931781 0.0 0.0 4.2108208819658905 7.293355709136913 0.0 0.0 0.0 46.87624170604845" Properties=species:S:1:pos:R:3:tags:I:1:forces:R:3 charge=0 spin=0 energy=-209.3678388509651 free_energy=-209.3678388509651 stress="0.010427610017359257 -2.9725866212970686e-10 1.2367128654489079e-08 -2.9725866212970686e-10 0.010427587665617466 -1.4083880728321674e-09 1.2367128654489079e-08 -1.4083880728321674e-09 -0.00018003315199166536" pbc="T T T"
Pt      -0.00000001       0.00000022      19.95723425        4      -0.00012845       0.00001296       0.01511921
Pt       2.80721397      -0.00000009      19.95723437        4      -0.00038544      -0.00013436       0.01542137
Pt       5.61442779      -0.00000006      19.95723442        4       0.00030974      -0.00026075       0.01541264
Pt       1.40360720       2.43111836      19.95723428        4       0.00046586      -0.00035166       0.01529627
Pt       4.21082081       2.43111834      19.95723435        4       0.00007499       0.00039916       0.01542468
Pt       7.01803481       2.43111842      19.95723424        4      -0.00053953      -0.00022792       0.01529722
Pt       2.80721405       4.86223723      19.95723396        4       0.00005503      -0.00012518       0.01512356
Pt       5.61442805       4.86223729      19.95723414        4       0.00007639       0.00010405       0.01512422
Pt       8.42164141       4.86223719      19.95723428        4       0.00007431       0.00058165       0.01529731
Pt       1.40360726       0.81037260      22.29206791        3      -0.00061968      -0.00026325      -0.04364470
Pt       4.21082130       0.81037249      22.29206785        3      -0.00000358       0.00000547      -0.04625801
Pt       7.01803472       0.81037257      22.29206783        3       0.00073598      -0.00051765      -0.04379992
Pt       2.80721450       3.24149124      22.29206777        3       0.00008059       0.00089246      -0.04380924
Pt       5.61442762       3.24149124      22.29206789        3       0.00008482       0.00066780      -0.04364823
Pt       8.42164156       3.24149128      22.29206809        3       0.00000597      -0.00000395      -0.04458565
Pt       4.21082092       5.67260996      22.29206799        3       0.00000049       0.00000217      -0.04814518
Pt       7.01803487       5.67261037      22.29206782        3      -0.00082095      -0.00038303      -0.04379800
Pt       9.82524820       5.67261064      22.29206809        3       0.00054851      -0.00042217      -0.04363177
Pt      -0.00000052       1.62074570      24.58417379        2       0.00044175      -0.00858470       0.01208328
Pt       2.80721442       1.62074548      24.58417394        2       0.00298551      -0.00188815       0.02919729
Pt       5.61442780       1.62074537      24.58417373        2      -0.00311230      -0.00167461       0.02920859
Pt       1.40360637       4.05186438      24.58417386        2       0.00719519       0.00467675       0.01204301
Pt       4.21082089       4.05186400      24.58417379        2       0.00044889      -0.00824013       0.02128970
Pt       7.01803504       4.05186405      24.58417405        2      -0.00764393       0.00392081       0.01207662
Pt       2.80721281       6.48298343      24.58417366        2      -0.00737946       0.00373498       0.02134946
Pt       5.61442797       6.48298326      24.58417386        2       0.00693437       0.00452813       0.02136781
Pt       8.42164223       6.48298340      24.58417377        2       0.00011214       0.00351541       0.02926373
Pt       0.00022241      -0.00418117      26.91513309        1      -0.00058563       0.02541567       0.00349486
Pt       2.80861325       0.00049871      26.91681896        1      -0.00442559      -0.00149928      -0.00616786
Pt       5.61328814       0.00095007      26.91682265        1       0.00355389      -0.00300768      -0.00617812
Pt       1.39973554       2.43329557      26.91019445        1       0.03381647      -0.01955944       0.02485598
Pt       4.21055468       2.42967455      26.91680578        1       0.00090238       0.00452920      -0.00611396
Pt       7.02184375       2.43340087      26.91020068        1      -0.03377344      -0.01965708       0.02482186
Pt       2.81071381       4.86452144      26.91513315        1      -0.02169453      -0.01317056       0.00353161
Pt       5.61069708       4.86413605      26.91513500        1       0.02230512      -0.01213967       0.00351015
Pt       8.42170428       4.85779287      26.91020883        1      -0.00009656       0.03912586       0.02482105
C        4.21082648       5.67260391      32.16523338        0       0.00000344      -0.00001169       0.01166788
O        4.21081811       5.67260860      33.34644579        0      -0.00000184       0.00000498       0.00269728
O        4.21083512       5.67259845      30.98480713        0      -0.00000107       0.00000539      -0.00501602
