39
Lattice="8.421641763931781 0.0 0.0 4.2108208819658905 7.293355709136913 0.0 0.0 0.0 46.87624170604845" Properties=species:S:1:pos:R:3:tags:I:1:forces:R:3 charge=0 spin=0 energy=-209.36830138300854 free_energy=-209.36830138300854 stress="0.010387243703007698 -2.14233359940863e-08 -1.4266805514751013e-08 -2.14233359940863e-08 0.010387302376329899 -6.646017070011112e-09 -1.4266805514751013e-08 -6.646017070011112e-09 -0.00024467534967698157" pbc="T T T"
Pt      -0.00000001       0.00000022      19.95723425        4      -0.00020426       0.00007602       0.01512065
Pt       2.80721397      -0.00000009      19.95723437        4       0.00014038       0.00022989       0.01525259
Pt       5.61442779      -0.00000006      19.95723442        4      -0.00026867       0.00001421       0.01524394
Pt       1.40360720       2.43111836      19.95723428        4      -0.00004373      -0.00002464       0.01524606
Pt       4.21082081       2.43111834      19.95723435        4       0.00012625      -0.00023572       0.01525106
Pt       7.01803481       2.43111842      19.95723424        4      -0.00000278       0.00005233       0.01524648
Pt       2.80721405       4.86223723      19.95723396        4       0.00003824      -0.00022219       0.01512157
Pt       5.61442805       4.86223729      19.95723414        4       0.00016856       0.00013833       0.01512116
Pt       8.42164141       4.86223719      19.95723428        4       0.00004566      -0.00002517       0.01524790
Pt       1.40360726       0.81037260      22.29206791        3      -0.00041245      -0.00066495      -0.04503502
Pt       4.21082130       0.81037249      22.29206785        3      -0.00000277       0.00001094      -0.04398422
Pt       7.01803472       0.81037257      22.29206783        3       0.00056238      -0.00125417      -0.04489112
Pt       2.80721450       3.24149124      22.29206777        3       0.00080840       0.00112222      -0.04490537
Pt       5.61442762       3.24149124      22.29206789        3      -0.00036988       0.00069442      -0.04503983
Pt       8.42164156       3.24149128      22.29206809        3       0.00000317       0.00000034      -0.03835529
Pt       4.21082092       5.67260996      22.29206799        3      -0.00000038       0.00000616      -0.04901849
Pt       7.01803487       5.67261037      22.29206782        3      -0.00137951       0.00013950      -0.04489643
Pt       9.82524820       5.67261064      22.29206809        3       0.00079141      -0.00003397      -0.04502677
Pt      -0.00000052       1.62074570      24.58417379        2       0.00048586       0.00724215       0.00643979
Pt       2.80721442       1.62074548      24.58417394        2       0.00259625      -0.00158719       0.01548189
Pt       5.61442780       1.62074537      24.58417373        2      -0.00268762      -0.00144229       0.01547245
Pt       1.40360637       4.05186438      24.58417386        2      -0.00650723      -0.00320677       0.00643599
Pt       4.21082089       4.05186400      24.58417379        2      -0.00024479      -0.00744041       0.01022033
Pt       7.01803504       4.05186405      24.58417405        2       0.00601236      -0.00403960       0.00644545
Pt       2.80721281       6.48298343      24.58417366        2      -0.00629965       0.00391732       0.01023292
Pt       5.61442797       6.48298326      24.58417386        2       0.00656101       0.00349512       0.01024635
Pt       8.42164223       6.48298340      24.58417377        2       0.00006783       0.00303698       0.01550339
Pt       0.00123004       0.00271578      26.90915939        1      -0.00485341      -0.02161119       0.02692919
Pt       2.80913627       0.00052625      26.91496753        1      -0.01132920      -0.00476321       0.00726582
Pt       5.61300345       0.00139471      26.91496713        1       0.00976189      -0.00745023       0.00730059
Pt       1.40490379       2.43069140      26.91141724        1      -0.00564541       0.00241862       0.02081557
Pt       4.21031689       2.42918354      26.91497509        1       0.00154150       0.01220398       0.00724372
Pt       7.01701684       2.43019844      26.91141735        1       0.00494339       0.00368133       0.02080664
Pt       2.80423760       4.86193546      26.90916150        1       0.02112896       0.00659766       0.02698455
Pt       5.61617006       4.85980423      26.90916327        1      -0.01625362       0.01502714       0.02693532
Pt       8.42135505       4.86356926      26.91141544        1       0.00072136      -0.00610308       0.02086788
C        4.21083778       5.67267319      32.22496914        0       0.00009031       0.00034125       0.00501544
O        4.21085567       5.67276178      33.40616566        0      -0.00004456      -0.00017042       0.00456445
O        4.21083456       5.67263905      31.04455437        0      -0.00004522      -0.00017071      -0.00690694
