39
Lattice="8.421641763931781 0.0 0.0 4.2108208819658905 7.293355709136913 0.0 0.0 0.0 46.87624170604845" Properties=species:S:1:pos:R:3:tags:I:1:forces:R:3 charge=0 spin=0 energy=-209.3682985219856 free_energy=-209.3682985219856 stress="0.010387233458459377 -1.741850041980797e-08 -1.2058379184054502e-08 -1.741850041980797e-08 0.010387293994426727 -6.37824504323703e-09 -1.2058379184054502e-08 -6.37824504323703e-09 -0.000244952185312286" pbc="T T T"
Pt      -0.00000001       0.00000022      19.95723425        4      -0.00020457       0.00007576       0.01512082
Pt       2.80721397      -0.00000009      19.95723437        4       0.00014076       0.00023010       0.01525244
Pt       5.61442779      -0.00000006      19.95723442        4      -0.00026858       0.00001410       0.01524383
Pt       1.40360720       2.43111836      19.95723428        4      -0.00004373      -0.00002447       0.01524614
Pt       4.21082081       2.43111834      19.95723435        4       0.00012637      -0.00023586       0.01525115
Pt       7.01803481       2.43111842      19.95723424        4      -0.00000275       0.00005226       0.01524657
Pt       2.80721405       4.86223723      19.95723396        4       0.00003813      -0.00022192       0.01512142
Pt       5.61442805       4.86223729      19.95723414        4       0.00016833       0.00013859       0.01512114
Pt       8.42164141       4.86223719      19.95723428        4       0.00004563      -0.00002506       0.01524775
Pt       1.40360726       0.81037260      22.29206791        3      -0.00041256      -0.00066518      -0.04503579
Pt       4.21082130       0.81037249      22.29206785        3      -0.00000224       0.00001073      -0.04398387
Pt       7.01803472       0.81037257      22.29206783        3       0.00056306      -0.00125467      -0.04489101
Pt       2.80721450       3.24149124      22.29206777        3       0.00080846       0.00112254      -0.04490568
Pt       5.61442762       3.24149124      22.29206789        3      -0.00037008       0.00069436      -0.04504054
Pt       8.42164156       3.24149128      22.29206809        3       0.00000357      -0.00000005      -0.03835461
Pt       4.21082092       5.67260996      22.29206799        3      -0.00000019       0.00000606      -0.04901807
Pt       7.01803487       5.67261037      22.29206782        3      -0.00137957       0.00013893      -0.04489617
Pt       9.82524820       5.67261064      22.29206809        3       0.00079132      -0.00003369      -0.04502720
Pt      -0.00000052       1.62074570      24.58417379        2       0.00048502       0.00724263       0.00642813
Pt       2.80721442       1.62074548      24.58417394        2       0.00259966      -0.00159129       0.01548606
Pt       5.61442780       1.62074537      24.58417373        2      -0.00269177      -0.00144617       0.01547593
Pt       1.40360637       4.05186438      24.58417386        2      -0.00650787      -0.00320640       0.00642662
Pt       4.21082089       4.05186400      24.58417379        2      -0.00024395      -0.00744182       0.01021310
Pt       7.01803504       4.05186405      24.58417405        2       0.00601229      -0.00403940       0.00643569
Pt       2.80721281       6.48298343      24.58417366        2      -0.00630216       0.00391829       0.01022746
Pt       5.61442797       6.48298326      24.58417386        2       0.00656336       0.00349719       0.01024230
Pt       8.42164223       6.48298340      24.58417377        2       0.00006909       0.00304317       0.01550895
Pt       0.00123026       0.00271645      26.90915696        1      -0.00485099      -0.02161683       0.02693519
Pt       2.80913513       0.00052516      26.91496875        1      -0.01131567      -0.00475451       0.00725416
Pt       5.61300540       0.00139357      26.91496764        1       0.00974268      -0.00743921       0.00728883
Pt       1.40490316       2.43069165      26.91141525        1      -0.00563688       0.00241372       0.02082573
Pt       4.21031650       2.42918587      26.91497484        1       0.00154201       0.01218383       0.00724160
Pt       7.01701720       2.43019870      26.91141451        1       0.00493387       0.00367639       0.02081591
Pt       2.80423699       4.86193548      26.90915939        1       0.02113530       0.00659995       0.02699392
Pt       5.61617051       4.85980361      26.90916054        1      -0.01625611       0.01503165       0.02694356
Pt       8.42135485       4.86356876      26.91141397        1       0.00072100      -0.00609340       0.02087736
C        4.21083817       5.67267201      32.22488933        0       0.00007837       0.00034403       0.00618850
O        4.21085345       5.67276092      33.40609082        0      -0.00003928      -0.00017183       0.00426453
O        4.21083529       5.67263754      31.04448228        0      -0.00003915      -0.00017259      -0.00777199
