39
Lattice="8.421641763931781 0.0 0.0 4.2108208819658905 7.293355709136913 0.0 0.0 0.0 46.87624170604845" Properties=species:S:1:pos:R:3:tags:I:1:forces:R:3 charge=0 spin=0 energy=-209.3682985219856 free_energy=-209.3682985219856 stress="0.01038721390068531 -1.9014889218738062e-08 -1.1981714287401246e-08 -1.9014889218738062e-08 0.01038727629929781 -7.1623427189138056e-09 -1.1981714287401246e-08 -7.1623427189138056e-09 -0.0002449048915877938" pbc="T T T"
Pt      -0.00000001       0.00000022      19.95723425        4      -0.00020441       0.00007580       0.01512065
Pt       2.80721397      -0.00000009      19.95723437        4       0.00014060       0.00022994       0.01525244
Pt       5.61442779      -0.00000006      19.95723442        4      -0.00026871       0.00001423       0.01524387
Pt       1.40360720       2.43111836      19.95723428        4      -0.00004375      -0.00002442       0.01524612
Pt       4.21082081       2.43111834      19.95723435        4       0.00012634      -0.00023572       0.01525119
Pt       7.01803481       2.43111842      19.95723424        4      -0.00000272       0.00005235       0.01524646
Pt       2.80721405       4.86223723      19.95723396        4       0.00003821      -0.00022218       0.01512144
Pt       5.61442805       4.86223729      19.95723414        4       0.00016842       0.00013861       0.01512131
Pt       8.42164141       4.86223719      19.95723428        4       0.00004553      -0.00002521       0.01524788
Pt       1.40360726       0.81037260      22.29206791        3      -0.00041294      -0.00066454      -0.04503576
Pt       4.21082130       0.81037249      22.29206785        3      -0.00000229       0.00001098      -0.04398323
Pt       7.01803472       0.81037257      22.29206783        3       0.00056301      -0.00125465      -0.04489136
Pt       2.80721450       3.24149124      22.29206777        3       0.00080822       0.00112283      -0.04490579
Pt       5.61442762       3.24149124      22.29206789        3      -0.00036969       0.00069440      -0.04504019
Pt       8.42164156       3.24149128      22.29206809        3       0.00000333       0.00000003      -0.03835430
Pt       4.21082092       5.67260996      22.29206799        3      -0.00000033       0.00000611      -0.04901812
Pt       7.01803487       5.67261037      22.29206782        3      -0.00138001       0.00013894      -0.04489468
Pt       9.82524820       5.67261064      22.29206809        3       0.00079166      -0.00003381      -0.04502762
Pt      -0.00000052       1.62074570      24.58417379        2       0.00048744       0.00724395       0.00642329
Pt       2.80721442       1.62074548      24.58417394        2       0.00259968      -0.00159162       0.01548506
Pt       5.61442780       1.62074537      24.58417373        2      -0.00269370      -0.00144534       0.01547013
Pt       1.40360637       4.05186438      24.58417386        2      -0.00650981      -0.00320824       0.00642397
Pt       4.21082089       4.05186400      24.58417379        2      -0.00024442      -0.00744389       0.01020653
Pt       7.01803504       4.05186405      24.58417405        2       0.00601405      -0.00403861       0.00642802
Pt       2.80721281       6.48298343      24.58417366        2      -0.00630207       0.00391861       0.01021969
Pt       5.61442797       6.48298326      24.58417386        2       0.00656582       0.00349830       0.01023394
Pt       8.42164223       6.48298340      24.58417377        2       0.00006696       0.00304208       0.01550578
Pt       0.00123065       0.00271585      26.90915472        1      -0.00485776      -0.02161317       0.02694617
Pt       2.80913477       0.00052480      26.91496799        1      -0.01131134      -0.00475150       0.00725579
Pt       5.61300555       0.00139320      26.91496713        1       0.00974174      -0.00743874       0.00729801
Pt       1.40490376       2.43069143      26.91141436        1      -0.00564009       0.00241589       0.02082503
Pt       4.21031655       2.42918598      26.91497474        1       0.00154058       0.01218058       0.00724266
Pt       7.01701673       2.43019859      26.91141313        1       0.00493826       0.00367474       0.02082395
Pt       2.80423689       4.86193579      26.90915671        1       0.02113197       0.00659838       0.02700438
Pt       5.61617009       4.85980348      26.90915824        1      -0.01625540       0.01503094       0.02695586
Pt       8.42135471       4.86356916      26.91141332        1       0.00072697      -0.00609583       0.02087713
C        4.21083820       5.67267345      32.22497188        0       0.00008153       0.00033527       0.00535171
O        4.21085492       5.67276214      33.40617105        0      -0.00004040      -0.00016738       0.00458871
O        4.21083452       5.67263792      31.04456135        0      -0.00004080      -0.00016800      -0.00726588
