39
Lattice="8.421641763931781 0.0 0.0 4.2108208819658905 7.293355709136913 0.0 0.0 0.0 46.87624170604845" Properties=species:S:1:pos:R:3:tags:I:1:forces:R:3 charge=0 spin=0 energy=-209.3682985219856 free_energy=-209.3682985219856 stress="0.010387266054749489 -1.6977027783582344e-08 -1.3037725565823166e-08 -1.6977027783582344e-08 0.010387326590716839 -6.742677083337867e-09 -1.3037725565823166e-08 -6.742677083337867e-09 -0.00024479831336066127" pbc="T T T"
Pt      -0.00000001       0.00000022      19.95723425        4      -0.00020434       0.00007585       0.01512087
Pt       2.80721397      -0.00000009      19.95723437        4       0.00014062       0.00022991       0.01525225
Pt       5.61442779      -0.00000006      19.95723442        4      -0.00026879       0.00001418       0.01524387
Pt       1.40360720       2.43111836      19.95723428        4      -0.00004370      -0.00002460       0.01524642
Pt       4.21082081       2.43111834      19.95723435        4       0.00012626      -0.00023577       0.01525112
Pt       7.01803481       2.43111842      19.95723424        4      -0.00000283       0.00005224       0.01524673
Pt       2.80721405       4.86223723      19.95723396        4       0.00003820      -0.00022210       0.01512159
Pt       5.61442805       4.86223729      19.95723414        4       0.00016846       0.00013849       0.01512116
Pt       8.42164141       4.86223719      19.95723428        4       0.00004565      -0.00002500       0.01524796
Pt       1.40360726       0.81037260      22.29206791        3      -0.00041298      -0.00066435      -0.04503610
Pt       4.21082130       0.81037249      22.29206785        3      -0.00000223       0.00001050      -0.04398379
Pt       7.01803472       0.81037257      22.29206783        3       0.00056290      -0.00125405      -0.04489055
Pt       2.80721450       3.24149124      22.29206777        3       0.00080774       0.00112241      -0.04490544
Pt       5.61442762       3.24149124      22.29206789        3      -0.00036947       0.00069462      -0.04503996
Pt       8.42164156       3.24149128      22.29206809        3       0.00000377       0.00000013      -0.03835665
Pt       4.21082092       5.67260996      22.29206799        3      -0.00000030       0.00000628      -0.04901730
Pt       7.01803487       5.67261037      22.29206782        3      -0.00137939       0.00013892      -0.04489563
Pt       9.82524820       5.67261064      22.29206809        3       0.00079142      -0.00003385      -0.04502678
Pt      -0.00000052       1.62074570      24.58417379        2       0.00048342       0.00723665       0.00644635
Pt       2.80721442       1.62074548      24.58417394        2       0.00259832      -0.00158820       0.01547982
Pt       5.61442780       1.62074537      24.58417373        2      -0.00268820      -0.00144300       0.01547213
Pt       1.40360637       4.05186438      24.58417386        2      -0.00650415      -0.00320227       0.00644295
Pt       4.21082089       4.05186400      24.58417379        2      -0.00024346      -0.00743623       0.01022999
Pt       7.01803504       4.05186405      24.58417405        2       0.00600823      -0.00403721       0.00645393
Pt       2.80721281       6.48298343      24.58417366        2      -0.00629696       0.00391455       0.01024354
Pt       5.61442797       6.48298326      24.58417386        2       0.00655737       0.00349363       0.01025518
Pt       8.42164223       6.48298340      24.58417377        2       0.00006904       0.00303672       0.01550245
Pt       0.00122955       0.00271432      26.90916244        1      -0.00485432      -0.02160544       0.02690960
Pt       2.80913606       0.00052605      26.91496742        1      -0.01133056      -0.00476325       0.00726749
Pt       5.61300328       0.00139458      26.91496728        1       0.00976504      -0.00745176       0.00730070
Pt       1.40490465       2.43069064      26.91141565        1      -0.00565045       0.00242394       0.02082350
Pt       4.21031691       2.42918377      26.91497463        1       0.00153973       0.01220541       0.00724449
Pt       7.01701552       2.43019806      26.91141664        1       0.00495130       0.00368476       0.02080461
Pt       2.80423904       4.86193574      26.90916384        1       0.02112354       0.00659764       0.02696653
Pt       5.61616927       4.85980504      26.90916594        1      -0.01625000       0.01502170       0.02691770
Pt       8.42135501       4.86357026      26.91141485        1       0.00072154      -0.00611130       0.02086476
C        4.21083883       5.67267284      32.22494544        0       0.00007452       0.00034139       0.00401289
O        4.21085242       5.67276021      33.40613645        0      -0.00003737      -0.00017058       0.00525876
O        4.21083675       5.67264002      31.04452675        0      -0.00003732      -0.00017089      -0.00659718
