39
Lattice="8.421641763931781 0.0 0.0 4.2108208819658905 7.293355709136913 0.0 0.0 0.0 46.87624170604845" Properties=species:S:1:pos:R:3:tags:I:1:forces:R:3 charge=0 spin=0 energy=-209.36792468165356 free_energy=-209.36792468165356 stress="0.010428364388644695 -2.2381423381290233e-09 -1.0202985123441977e-08 -2.2381423381290233e-09 0.010428398847579956 1.2220513667671185e-07 -1.0202985123441977e-08 1.2220513667671185e-07 -0.00019086508837062865" pbc="T T T"
Pt      -0.00000001       0.00000022      19.95723425        4      -0.00007224      -0.00039271       0.01513160
Pt       2.80721397      -0.00000009      19.95723437        4      -0.00014255      -0.00000884       0.01537415
Pt       5.61442779      -0.00000006      19.95723442        4       0.00008062      -0.00011014       0.01536374
Pt       1.40360720       2.43111836      19.95723428        4       0.00036309      -0.00022538       0.01530042
Pt       4.21082081       2.43111834      19.95723435        4       0.00006044       0.00012422       0.01538062
Pt       7.01803481       2.43111842      19.95723424        4      -0.00037942      -0.00020269       0.01529928
Pt       2.80721405       4.86223723      19.95723396        4       0.00037825       0.00012629       0.01513866
Pt       5.61442805       4.86223729      19.95723414        4      -0.00030452       0.00025742       0.01513919
Pt       8.42164141       4.86223719      19.95723428        4       0.00001524       0.00043049       0.01529871
Pt       1.40360726       0.81037260      22.29206791        3      -0.00099887       0.00012990      -0.04460600
Pt       4.21082130       0.81037249      22.29206785        3      -0.00000410       0.00000759      -0.04279555
Pt       7.01803472       0.81037257      22.29206783        3       0.00106960       0.00007644      -0.04462961
Pt       2.80721450       3.24149124      22.29206777        3      -0.00060182       0.00089417      -0.04462742
Pt       5.61442762       3.24149124      22.29206789        3       0.00060554       0.00080115      -0.04459710
Pt       8.42164156       3.24149128      22.29206809        3       0.00000384       0.00000175      -0.04599884
Pt       4.21082092       5.67260996      22.29206799        3      -0.00000411       0.00000543      -0.04482534
Pt       7.01803487       5.67261037      22.29206782        3      -0.00048039      -0.00096647      -0.04462371
Pt       9.82524820       5.67261064      22.29206809        3       0.00039754      -0.00093719      -0.04459212
Pt      -0.00000052       1.62074570      24.58417379        2       0.00051768      -0.01390981       0.01145470
Pt       2.80721442       1.62074548      24.58417394        2       0.00931031      -0.00533724       0.01952579
Pt       5.61442780       1.62074537      24.58417373        2      -0.00927908      -0.00538278       0.01950832
Pt       1.40360637       4.05186438      24.58417386        2       0.01179603       0.00740548       0.01147336
Pt       4.21082089       4.05186400      24.58417379        2       0.00035953       0.00120280       0.03141409
Pt       7.01803504       4.05186405      24.58417405        2      -0.01230415       0.00653860       0.01147586
Pt       2.80721281       6.48298343      24.58417366        2       0.00085386      -0.00091871       0.03144347
Pt       5.61442797       6.48298326      24.58417386        2      -0.00119853      -0.00028558       0.03146296
Pt       8.42164223       6.48298340      24.58417377        2      -0.00004037       0.01071687       0.01958085
Pt       0.00013469      -0.00242547      26.91972874        1      -0.00038307       0.00844533      -0.01635992
Pt       2.80635399      -0.00073371      26.91593287        1       0.00604231       0.00407616      -0.00062417
Pt       5.61549293      -0.00038106      26.91593258        1      -0.00654275       0.00318832      -0.00062404
Pt       1.40340559       2.43100569      26.90646904        1       0.00738830      -0.00356585       0.03988343
Pt       4.21061627       2.43223450      26.91593141        1       0.00051033      -0.00725662      -0.00061391
Pt       7.01803386       2.43135650      26.90646960        1      -0.00676025      -0.00466262       0.03988341
Pt       2.80924901       4.86356566      26.91973714        1      -0.00714442      -0.00456150      -0.01638155
Pt       5.61226114       4.86333587      26.91973874        1       0.00752759      -0.00388257      -0.01638178
Pt       8.42184498       4.86212046      26.90647911        1      -0.00063905       0.00817860       0.03984957
C        4.21081893       5.67260500      32.18271801        0      -0.00000603      -0.00000596       0.03713705
O        4.21082862       5.67261813      33.36393160        0       0.00000313       0.00000376       0.00523544
O        4.21080801       5.67259083      31.00260353        0       0.00000248       0.00000191      -0.03447369
