39
Lattice="8.421641763931781 0.0 0.0 4.2108208819658905 7.293355709136913 0.0 0.0 0.0 46.87624170604845" Properties=species:S:1:pos:R:3:tags:I:1:forces:R:3 charge=0 spin=0 energy=-209.36783598994214 free_energy=-209.36783598994214 stress="0.010427608154714108 -4.5640264900725924e-09 1.2915231550891804e-08 -4.5640264900725924e-09 0.010427585802972317 -7.501588933367387e-11 1.2915231550891804e-08 -7.501588933367387e-11 -0.00017993633809965104" pbc="T T T"
Pt      -0.00000001       0.00000022      19.95723425        4      -0.00012842       0.00001305       0.01511894
Pt       2.80721397      -0.00000009      19.95723437        4      -0.00038576      -0.00013453       0.01542150
Pt       5.61442779      -0.00000006      19.95723442        4       0.00031021      -0.00026107       0.01541264
Pt       1.40360720       2.43111836      19.95723428        4       0.00046586      -0.00035170       0.01529595
Pt       4.21082081       2.43111834      19.95723435        4       0.00007506       0.00039963       0.01542468
Pt       7.01803481       2.43111842      19.95723424        4      -0.00053959      -0.00022802       0.01529699
Pt       2.80721405       4.86223723      19.95723396        4       0.00005499      -0.00012527       0.01512335
Pt       5.61442805       4.86223729      19.95723414        4       0.00007645       0.00010396       0.01512400
Pt       8.42164141       4.86223719      19.95723428        4       0.00007420       0.00058176       0.01529718
Pt       1.40360726       0.81037260      22.29206791        3      -0.00061986      -0.00026282      -0.04364479
Pt       4.21082130       0.81037249      22.29206785        3      -0.00000324       0.00000567      -0.04625756
Pt       7.01803472       0.81037257      22.29206783        3       0.00073662      -0.00051726      -0.04379938
Pt       2.80721450       3.24149124      22.29206777        3       0.00008034       0.00089279      -0.04380837
Pt       5.61442762       3.24149124      22.29206789        3       0.00008515       0.00066807      -0.04364842
Pt       8.42164156       3.24149128      22.29206809        3       0.00000604      -0.00000414      -0.04458876
Pt       4.21082092       5.67260996      22.29206799        3       0.00000057       0.00000268      -0.04814555
Pt       7.01803487       5.67261037      22.29206782        3      -0.00082066      -0.00038363      -0.04379744
Pt       9.82524820       5.67261064      22.29206809        3       0.00054842      -0.00042198      -0.04363072
Pt      -0.00000052       1.62074570      24.58417379        2       0.00044104      -0.00859235       0.01207624
Pt       2.80721442       1.62074548      24.58417394        2       0.00298709      -0.00188665       0.02920054
Pt       5.61442780       1.62074537      24.58417373        2      -0.00311486      -0.00167563       0.02921315
Pt       1.40360637       4.05186438      24.58417386        2       0.00720502       0.00468129       0.01203982
Pt       4.21082089       4.05186400      24.58417379        2       0.00044722      -0.00824085       0.02129929
Pt       7.01803504       4.05186405      24.58417405        2      -0.00765266       0.00392293       0.01206897
Pt       2.80721281       6.48298343      24.58417366        2      -0.00738061       0.00373299       0.02135804
Pt       5.61442797       6.48298326      24.58417386        2       0.00693350       0.00452757       0.02137318
Pt       8.42164223       6.48298340      24.58417377        2       0.00011415       0.00351860       0.02926284
Pt       0.00022221      -0.00418253      26.91513486        1      -0.00058503       0.02542078       0.00349047
Pt       2.80861402       0.00049917      26.91681847        1      -0.00442958      -0.00149953      -0.00616934
Pt       5.61328742       0.00095042      26.91682353        1       0.00355644      -0.00300978      -0.00618694
Pt       1.39973340       2.43329664      26.91019198        1       0.03383916      -0.01956915       0.02486592
Pt       4.21055458       2.42967404      26.91680643        1       0.00090193       0.00453203      -0.00612218
Pt       7.02184574       2.43340189      26.91019851        1      -0.03379453      -0.01966987       0.02483172
Pt       2.81071509       4.86452179      26.91513575        1      -0.02170246      -0.01317325       0.00351714
Pt       5.61069597       4.86413696      26.91513719        1       0.02230827      -0.01214339       0.00350574
Pt       8.42170380       4.85779049      26.91020641        1      -0.00009031       0.03914696       0.02483992
C        4.21082682       5.67260387      32.16531265        0       0.00000006      -0.00000876       0.01082111
O        4.21081817       5.67260825      33.34652155        0      -0.00000032       0.00000383       0.00302629
O        4.21083562       5.67259861      30.98488156        0       0.00000016       0.00000482      -0.00450635
