39
Lattice="8.421641763931781 0.0 0.0 4.2108208819658905 7.293355709136913 0.0 0.0 0.0 46.87624170604845" Properties=species:S:1:pos:R:3:tags:I:1:forces:R:3 charge=0 spin=0 energy=-209.36741160487134 free_energy=-209.36741160487134 stress="0.010531285777688026 -3.5763096928320692e-09 -1.0873323352811326e-09 -3.5763096928320692e-09 0.010531289502978325 1.0070807299200624e-08 -1.0873323352811326e-09 1.0070807299200624e-08 2.659667734405957e-05" pbc="T T T"
Pt      -0.00000001       0.00000022      19.95723425        4      -0.00006386      -0.00034064       0.01517017
Pt       2.80721397      -0.00000009      19.95723437        4       0.00002351      -0.00001365       0.01532502
Pt       5.61442779      -0.00000006      19.95723442        4       0.00000066       0.00003376       0.01531730
Pt       1.40360720       2.43111836      19.95723428        4      -0.00045199       0.00011950       0.01533671
Pt       4.21082081       2.43111834      19.95723435        4      -0.00002464      -0.00001442       0.01533039
Pt       7.01803481       2.43111842      19.95723424        4       0.00032749       0.00033023       0.01533571
Pt       2.80721405       4.86223723      19.95723396        4       0.00032598       0.00010740       0.01516949
Pt       5.61442805       4.86223729      19.95723414        4      -0.00025960       0.00022327       0.01516716
Pt       8.42164141       4.86223719      19.95723428        4       0.00012396      -0.00044912       0.01532907
Pt       1.40360726       0.81037260      22.29206791        3       0.00035175       0.00039086      -0.04640643
Pt       4.21082130       0.81037249      22.29206785        3      -0.00000257       0.00000468      -0.04853153
Pt       7.01803472       0.81037257      22.29206783        3      -0.00049599      -0.00010721      -0.04641759
Pt       2.80721450       3.24149124      22.29206777        3       0.00034107      -0.00037571      -0.04642976
Pt       5.61442762       3.24149124      22.29206789        3       0.00016261      -0.00049907      -0.04641243
Pt       8.42164156       3.24149128      22.29206809        3       0.00000357      -0.00000093      -0.03999705
Pt       4.21082092       5.67260996      22.29206799        3      -0.00000249       0.00000189      -0.04141535
Pt       7.01803487       5.67261037      22.29206782        3       0.00014659       0.00047793      -0.04643557
Pt       9.82524820       5.67261064      22.29206809        3      -0.00050596       0.00009415      -0.04641299
Pt      -0.00000052       1.62074570      24.58417379        2       0.00026093       0.00630827       0.06050533
Pt       2.80721442       1.62074548      24.58417394        2      -0.00813548       0.00407426       0.03665061
Pt       5.61442780       1.62074537      24.58417373        2       0.00756886       0.00503782       0.03661343
Pt       1.40360637       4.05186438      24.58417386        2      -0.00557712      -0.00292811       0.06058670
Pt       4.21082089       4.05186400      24.58417379        2       0.00017426       0.01346472       0.04236690
Pt       7.01803504       4.05186405      24.58417405        2       0.00533174      -0.00334765       0.06055744
Pt       2.80721281       6.48298343      24.58417366        2       0.01157196      -0.00690090       0.04235784
Pt       5.61442797       6.48298326      24.58417386        2      -0.01174367      -0.00657131       0.04236482
Pt       8.42164223       6.48298340      24.58417377        2       0.00054368      -0.00908687       0.03668937
Pt       0.00028932       0.00336489      26.92235292        1      -0.00095573      -0.02339984      -0.02661693
Pt       2.80444824      -0.00220879      26.91246879        1       0.01441458       0.01101897       0.01316958
Pt       5.61772606      -0.00127112      26.91246427        1      -0.01676063       0.00691221       0.01319369
Pt       1.40507959       2.43012900      26.92333258        1      -0.01588176       0.00937356      -0.03336382
Pt       4.21028322       2.43461661      26.91247134        1       0.00231930      -0.01794009       0.01315005
Pt       7.01643475       2.43033765      26.92332578        1       0.01607039       0.00912376      -0.03335723
Pt       2.80416420       4.86082309      26.92235664        1       0.02066650       0.01080150      -0.02662798
Pt       5.61718792       4.86030902      26.92235652        1      -0.01972947       0.01253597      -0.02664452
Pt       8.42176154       4.86402648      26.92333721        1      -0.00013816      -0.01845923      -0.03340415
C        4.21082220       5.67259723      32.38236469        0       0.00000026      -0.00000823      -0.02486325
O        4.21082220       5.67261899      33.56347984        0      -0.00000034       0.00000435       0.01245196
O        4.21082209       5.67257459      31.20186012        0      -0.00000034       0.00000380       0.00519770
