39
Lattice="8.421641763931781 0.0 0.0 4.2108208819658905 7.293355709136913 0.0 0.0 0.0 46.87624170604845" Properties=species:S:1:pos:R:3:tags:I:1:forces:R:3 charge=0 spin=0 energy=-209.36792468165356 free_energy=-209.36792468165356 stress="0.01042836531996727 2.22548438011394e-10 -1.0592836829914631e-08 2.22548438011394e-10 0.010428403504192829 1.2292728968077427e-07 -1.0592836829914631e-08 1.2292728968077427e-07 -0.00019085821986664087" pbc="T T T"
Pt      -0.00000001       0.00000022      19.95723425        4      -0.00007229      -0.00039282       0.01513174
Pt       2.80721397      -0.00000009      19.95723437        4      -0.00014252      -0.00000883       0.01537411
Pt       5.61442779      -0.00000006      19.95723442        4       0.00008064      -0.00011019       0.01536355
Pt       1.40360720       2.43111836      19.95723428        4       0.00036326      -0.00022529       0.01530045
Pt       4.21082081       2.43111834      19.95723435        4       0.00006042       0.00012441       0.01538049
Pt       7.01803481       2.43111842      19.95723424        4      -0.00037960      -0.00020283       0.01529924
Pt       2.80721405       4.86223723      19.95723396        4       0.00037815       0.00012638       0.01513874
Pt       5.61442805       4.86223729      19.95723414        4      -0.00030458       0.00025738       0.01513925
Pt       8.42164141       4.86223719      19.95723428        4       0.00001534       0.00043069       0.01529879
Pt       1.40360726       0.81037260      22.29206791        3      -0.00099905       0.00013002      -0.04460593
Pt       4.21082130       0.81037249      22.29206785        3      -0.00000393       0.00000777      -0.04279589
Pt       7.01803472       0.81037257      22.29206783        3       0.00106994       0.00007662      -0.04462881
Pt       2.80721450       3.24149124      22.29206777        3      -0.00060158       0.00089414      -0.04462742
Pt       5.61442762       3.24149124      22.29206789        3       0.00060552       0.00080172      -0.04459731
Pt       8.42164156       3.24149128      22.29206809        3       0.00000330       0.00000184      -0.04599933
Pt       4.21082092       5.67260996      22.29206799        3      -0.00000406       0.00000569      -0.04482615
Pt       7.01803487       5.67261037      22.29206782        3      -0.00048034      -0.00096646      -0.04462331
Pt       9.82524820       5.67261064      22.29206809        3       0.00039779      -0.00093748      -0.04459096
Pt      -0.00000052       1.62074570      24.58417379        2       0.00051519      -0.01391047       0.01145071
Pt       2.80721442       1.62074548      24.58417394        2       0.00931204      -0.00533823       0.01952392
Pt       5.61442780       1.62074537      24.58417373        2      -0.00927779      -0.00538685       0.01951425
Pt       1.40360637       4.05186438      24.58417386        2       0.01179699       0.00740880       0.01147116
Pt       4.21082089       4.05186400      24.58417379        2       0.00035880       0.00120160       0.03141307
Pt       7.01803504       4.05186405      24.58417405        2      -0.01230510       0.00653891       0.01147568
Pt       2.80721281       6.48298343      24.58417366        2       0.00084721      -0.00091625       0.03144521
Pt       5.61442797       6.48298326      24.58417386        2      -0.00119560      -0.00028576       0.03145925
Pt       8.42164223       6.48298340      24.58417377        2      -0.00003704       0.01071745       0.01958731
Pt       0.00013478      -0.00242670      26.91972825        1      -0.00038453       0.00845477      -0.01635040
Pt       2.80635446      -0.00073369      26.91593311        1       0.00604294       0.00407403      -0.00062411
Pt       5.61549182      -0.00038108      26.91593465        1      -0.00653842       0.00318717      -0.00064205
Pt       1.40340605       2.43100610      26.90646726        1       0.00739031      -0.00356894       0.03989251
Pt       4.21061639       2.43223374      26.91593090        1       0.00050989      -0.00725449      -0.00061315
Pt       7.01803434       2.43135689      26.90646887        1      -0.00676469      -0.00466784       0.03988178
Pt       2.80925023       4.86356633      26.91973740        1      -0.00715215      -0.00456646      -0.01638068
Pt       5.61226031       4.86333646      26.91973826        1       0.00753600      -0.00388724      -0.01637977
Pt       8.42184504       4.86211941      26.90647902        1      -0.00063936       0.00818755       0.03984855
C        4.21081857       5.67260483      32.18274322        0      -0.00000682      -0.00000592       0.03646405
O        4.21082808       5.67261789      33.36395161        0       0.00000337       0.00000366       0.00557106
O        4.21080836       5.67259079      31.00262582        0       0.00000254       0.00000201      -0.03413969
