39
Lattice="8.421641763931781 0.0 0.0 4.2108208819658905 7.293355709136913 0.0 0.0 0.0 46.87624170604845" Properties=species:S:1:pos:R:3:tags:I:1:forces:R:3 charge=0 spin=0 energy=-209.36783598994214 free_energy=-209.36783598994214 stress="0.010427587665617466 -2.895862660778903e-09 1.3058975234514492e-08 -2.895862660778903e-09 0.010427565313875675 -1.4603122877598906e-10 1.3058975234514492e-08 -1.4603122877598906e-10 -0.000180139672011137" pbc="T T T"
Pt      -0.00000001       0.00000022      19.95723425        4      -0.00012843       0.00001311       0.01511902
Pt       2.80721397      -0.00000009      19.95723437        4      -0.00038587      -0.00013451       0.01542148
Pt       5.61442779      -0.00000006      19.95723442        4       0.00031022      -0.00026120       0.01541281
Pt       1.40360720       2.43111836      19.95723428        4       0.00046598      -0.00035188       0.01529599
Pt       4.21082081       2.43111834      19.95723435        4       0.00007495       0.00039972       0.01542445
Pt       7.01803481       2.43111842      19.95723424        4      -0.00053959      -0.00022803       0.01529707
Pt       2.80721405       4.86223723      19.95723396        4       0.00005503      -0.00012523       0.01512347
Pt       5.61442805       4.86223729      19.95723414        4       0.00007654       0.00010371       0.01512398
Pt       8.42164141       4.86223719      19.95723428        4       0.00007408       0.00058173       0.01529718
Pt       1.40360726       0.81037260      22.29206791        3      -0.00061999      -0.00026315      -0.04364419
Pt       4.21082130       0.81037249      22.29206785        3      -0.00000348       0.00000559      -0.04625843
Pt       7.01803472       0.81037257      22.29206783        3       0.00073682      -0.00051750      -0.04379922
Pt       2.80721450       3.24149124      22.29206777        3       0.00008043       0.00089264      -0.04380863
Pt       5.61442762       3.24149124      22.29206789        3       0.00008470       0.00066862      -0.04364787
Pt       8.42164156       3.24149128      22.29206809        3       0.00000617      -0.00000411      -0.04458779
Pt       4.21082092       5.67260996      22.29206799        3       0.00000036       0.00000256      -0.04814606
Pt       7.01803487       5.67261037      22.29206782        3      -0.00082091      -0.00038366      -0.04379733
Pt       9.82524820       5.67261064      22.29206809        3       0.00054845      -0.00042192      -0.04363057
Pt      -0.00000052       1.62074570      24.58417379        2       0.00043989      -0.00859247       0.01206841
Pt       2.80721442       1.62074548      24.58417394        2       0.00298746      -0.00188699       0.02919685
Pt       5.61442780       1.62074537      24.58417373        2      -0.00311356      -0.00167485       0.02921491
Pt       1.40360637       4.05186438      24.58417386        2       0.00720320       0.00468223       0.01202685
Pt       4.21082089       4.05186400      24.58417379        2       0.00044941      -0.00824495       0.02129087
Pt       7.01803504       4.05186405      24.58417405        2      -0.00765217       0.00392305       0.01206303
Pt       2.80721281       6.48298343      24.58417366        2      -0.00738308       0.00373705       0.02135078
Pt       5.61442797       6.48298326      24.58417386        2       0.00693617       0.00452882       0.02136770
Pt       8.42164223       6.48298340      24.58417377        2       0.00011442       0.00351732       0.02926361
Pt       0.00022231      -0.00418272      26.91513218        1      -0.00058602       0.02542280       0.00349759
Pt       2.80861480       0.00049975      26.91681937        1      -0.00443126      -0.00150241      -0.00616905
Pt       5.61328708       0.00095079      26.91682381        1       0.00355913      -0.00300979      -0.00618815
Pt       1.39973189       2.43329802      26.91019094        1       0.03384877      -0.01958109       0.02487603
Pt       4.21055429       2.42967355      26.91680669        1       0.00090820       0.00453420      -0.00612278
Pt       7.02184766       2.43340323      26.91019805        1      -0.03380985      -0.01967815       0.02483286
Pt       2.81071557       4.86452214      26.91513253        1      -0.02170274      -0.01317162       0.00353523
Pt       5.61069566       4.86413718      26.91513367        1       0.02231241      -0.01214380       0.00351314
Pt       8.42170403       4.85778844      26.91020533        1      -0.00009579       0.03916414       0.02484200
C        4.21082650       5.67260376      32.16528748        0       0.00000009      -0.00000880       0.01116166
O        4.21081838       5.67260777      33.34649501        0      -0.00000043       0.00000379       0.00304893
O        4.21083445       5.67259848      30.98486021        0       0.00000024       0.00000479      -0.00486581
