39
Lattice="8.421641763931781 0.0 0.0 4.2108208819658905 7.293355709136913 0.0 0.0 0.0 46.87624170604845" Properties=species:S:1:pos:R:3:tags:I:1:forces:R:3 charge=0 spin=0 energy=-209.36741637324292 free_energy=-209.36741637324292 stress="0.010531269013881683 -3.6400593650398605e-09 -1.0771818992338922e-09 -3.6400593650398605e-09 0.010531274601817131 8.264643192035237e-09 -1.0771818992338922e-09 8.264643192035237e-09 2.663847408257425e-05" pbc="T T T"
Pt      -0.00000001       0.00000022      19.95723425        4      -0.00006396      -0.00034071       0.01517031
Pt       2.80721397      -0.00000009      19.95723437        4       0.00002334      -0.00001363       0.01532506
Pt       5.61442779      -0.00000006      19.95723442        4       0.00000090       0.00003375       0.01531749
Pt       1.40360720       2.43111836      19.95723428        4      -0.00045176       0.00011933       0.01533656
Pt       4.21082081       2.43111834      19.95723435        4      -0.00002462      -0.00001453       0.01533024
Pt       7.01803481       2.43111842      19.95723424        4       0.00032759       0.00033001       0.01533567
Pt       2.80721405       4.86223723      19.95723396        4       0.00032597       0.00010750       0.01516951
Pt       5.61442805       4.86223729      19.95723414        4      -0.00025976       0.00022319       0.01516692
Pt       8.42164141       4.86223719      19.95723428        4       0.00012375      -0.00044910       0.01532905
Pt       1.40360726       0.81037260      22.29206791        3       0.00035161       0.00039135      -0.04640610
Pt       4.21082130       0.81037249      22.29206785        3      -0.00000250       0.00000486      -0.04853026
Pt       7.01803472       0.81037257      22.29206783        3      -0.00049537      -0.00010671      -0.04641769
Pt       2.80721450       3.24149124      22.29206777        3       0.00034032      -0.00037517      -0.04642990
Pt       5.61442762       3.24149124      22.29206789        3       0.00016247      -0.00049902      -0.04641297
Pt       8.42164156       3.24149128      22.29206809        3       0.00000377      -0.00000056      -0.03999993
Pt       4.21082092       5.67260996      22.29206799        3      -0.00000253       0.00000214      -0.04141507
Pt       7.01803487       5.67261037      22.29206782        3       0.00014704       0.00047766      -0.04643563
Pt       9.82524820       5.67261064      22.29206809        3      -0.00050587       0.00009396      -0.04641307
Pt      -0.00000052       1.62074570      24.58417379        2       0.00026111       0.00630245       0.06049608
Pt       2.80721442       1.62074548      24.58417394        2      -0.00813174       0.00407050       0.03664872
Pt       5.61442780       1.62074537      24.58417373        2       0.00756525       0.00503558       0.03660884
Pt       1.40360637       4.05186438      24.58417386        2      -0.00557246      -0.00292554       0.06057781
Pt       4.21082089       4.05186400      24.58417379        2       0.00017540       0.01346436       0.04236829
Pt       7.01803504       4.05186405      24.58417405        2       0.00532515      -0.00334390       0.06055245
Pt       2.80721281       6.48298343      24.58417366        2       0.01157171      -0.00690059       0.04235517
Pt       5.61442797       6.48298326      24.58417386        2      -0.01174140      -0.00657201       0.04236666
Pt       8.42164223       6.48298340      24.58417377        2       0.00054147      -0.00908189       0.03668718
Pt       0.00028930       0.00336303      26.92235398        1      -0.00095546      -0.02339091      -0.02661295
Pt       2.80444804      -0.00220896      26.91246919        1       0.01441736       0.01101831       0.01316156
Pt       5.61772607      -0.00127137      26.91246501        1      -0.01676358       0.00691482       0.01319367
Pt       1.40507925       2.43012911      26.92332928        1      -0.01587687       0.00937228      -0.03334832
Pt       4.21028347       2.43461653      26.91247144        1       0.00232004      -0.01794005       0.01314990
Pt       7.01643494       2.43033756      26.92332309        1       0.01606400       0.00912463      -0.03334204
Pt       2.80416525       4.86082393      26.92235770        1       0.02066069       0.01079383      -0.02662883
Pt       5.61718649       4.86030990      26.92235737        1      -0.01972006       0.01252902      -0.02665504
Pt       8.42176166       4.86402638      26.92333418        1      -0.00014047      -0.01845622      -0.03338856
C        4.21082230       5.67259730      32.38247500        0      -0.00000044      -0.00000183      -0.02502502
O        4.21082242       5.67261832      33.56358984        0      -0.00000009       0.00000175       0.01243796
O        4.21082181       5.67257575      31.20196945        0      -0.00000013       0.00000115       0.00537641
