39
Lattice="8.421641763931781 0.0 0.0 4.2108208819658905 7.293355709136913 0.0 0.0 0.0 46.87624170604845" Properties=species:S:1:pos:R:3:tags:I:1:forces:R:3 charge=0 spin=0 energy=-209.36792277430493 free_energy=-209.36792277430493 stress="0.01042836531996727 -2.028712087209783e-09 -1.1332401683716853e-08 -2.028712087209783e-09 0.010428396053612232 1.231278332625152e-07 -1.1332401683716853e-08 1.231278332625152e-07 -0.0001907981204567477" pbc="T T T"
Pt      -0.00000001       0.00000022      19.95723425        4      -0.00007222      -0.00039287       0.01513172
Pt       2.80721397      -0.00000009      19.95723437        4      -0.00014238      -0.00000861       0.01537390
Pt       5.61442779      -0.00000006      19.95723442        4       0.00008061      -0.00011010       0.01536368
Pt       1.40360720       2.43111836      19.95723428        4       0.00036312      -0.00022534       0.01530025
Pt       4.21082081       2.43111834      19.95723435        4       0.00006049       0.00012432       0.01538066
Pt       7.01803481       2.43111842      19.95723424        4      -0.00037953      -0.00020287       0.01529919
Pt       2.80721405       4.86223723      19.95723396        4       0.00037844       0.00012636       0.01513872
Pt       5.61442805       4.86223729      19.95723414        4      -0.00030477       0.00025736       0.01513917
Pt       8.42164141       4.86223719      19.95723428        4       0.00001548       0.00043049       0.01529888
Pt       1.40360726       0.81037260      22.29206791        3      -0.00099914       0.00013002      -0.04460628
Pt       4.21082130       0.81037249      22.29206785        3      -0.00000434       0.00000772      -0.04279488
Pt       7.01803472       0.81037257      22.29206783        3       0.00106936       0.00007643      -0.04462916
Pt       2.80721450       3.24149124      22.29206777        3      -0.00060188       0.00089436      -0.04462750
Pt       5.61442762       3.24149124      22.29206789        3       0.00060543       0.00080120      -0.04459749
Pt       8.42164156       3.24149128      22.29206809        3       0.00000355       0.00000200      -0.04599815
Pt       4.21082092       5.67260996      22.29206799        3      -0.00000418       0.00000558      -0.04482490
Pt       7.01803487       5.67261037      22.29206782        3      -0.00048072      -0.00096655      -0.04462408
Pt       9.82524820       5.67261064      22.29206809        3       0.00039781      -0.00093718      -0.04459180
Pt      -0.00000052       1.62074570      24.58417379        2       0.00051605      -0.01391062       0.01145314
Pt       2.80721442       1.62074548      24.58417394        2       0.00931254      -0.00533926       0.01952333
Pt       5.61442780       1.62074537      24.58417373        2      -0.00927872      -0.00538490       0.01951072
Pt       1.40360637       4.05186438      24.58417386        2       0.01179573       0.00740704       0.01147113
Pt       4.21082089       4.05186400      24.58417379        2       0.00035875       0.00120313       0.03141297
Pt       7.01803504       4.05186405      24.58417405        2      -0.01230365       0.00653849       0.01147556
Pt       2.80721281       6.48298343      24.58417366        2       0.00085214      -0.00091692       0.03144585
Pt       5.61442797       6.48298326      24.58417386        2      -0.00119874      -0.00028549       0.03146226
Pt       8.42164223       6.48298340      24.58417377        2      -0.00003917       0.01071792       0.01958307
Pt       0.00013432      -0.00242544      26.91972931        1      -0.00038376       0.00844591      -0.01636187
Pt       2.80635339      -0.00073411      26.91593326        1       0.00604465       0.00407669      -0.00062417
Pt       5.61549223      -0.00038149      26.91593441        1      -0.00653925       0.00319008      -0.00063197
Pt       1.40340642       2.43100548      26.90646717        1       0.00738188      -0.00356479       0.03989170
Pt       4.21061605       2.43223472      26.91593138        1       0.00051046      -0.00725973      -0.00061357
Pt       7.01803360       2.43135641      26.90646901        1      -0.00675822      -0.00466377       0.03988337
Pt       2.80924867       4.86356569      26.91973741        1      -0.00714547      -0.00456251      -0.01638390
Pt       5.61226099       4.86333580      26.91973853        1       0.00753014      -0.00388080      -0.01638299
Pt       8.42184509       4.86212048      26.90647900        1      -0.00064051       0.00817758       0.03984872
C        4.21081896       5.67260490      32.18267535        0      -0.00000356      -0.00000035       0.03697639
O        4.21082853       5.67261788      33.36388637        0       0.00000201       0.00000092       0.00522373
O        4.21080871       5.67259170      31.00255994        0       0.00000136      -0.00000085      -0.03429541
