39
Lattice="8.421641763931781 0.0 0.0 4.2108208819658905 7.293355709136913 0.0 0.0 0.0 46.87624170604845" Properties=species:S:1:pos:R:3:tags:I:1:forces:R:3 charge=0 spin=0 energy=-209.3678388509651 free_energy=-209.3678388509651 stress="0.010427581146359444 -4.7501833577712205e-09 1.4191610553382361e-08 -4.7501833577712205e-09 0.010427557863295078 -2.853164093874483e-10 1.4191610553382361e-08 -2.853164093874483e-10 -0.00018006894970312715" pbc="T T T"
Pt      -0.00000001       0.00000022      19.95723425        4      -0.00012864       0.00001310       0.01511904
Pt       2.80721397      -0.00000009      19.95723437        4      -0.00038573      -0.00013443       0.01542161
Pt       5.61442779      -0.00000006      19.95723442        4       0.00031039      -0.00026112       0.01541281
Pt       1.40360720       2.43111836      19.95723428        4       0.00046601      -0.00035185       0.01529608
Pt       4.21082081       2.43111834      19.95723435        4       0.00007505       0.00039980       0.01542470
Pt       7.01803481       2.43111842      19.95723424        4      -0.00053963      -0.00022791       0.01529682
Pt       2.80721405       4.86223723      19.95723396        4       0.00005498      -0.00012501       0.01512339
Pt       5.61442805       4.86223729      19.95723414        4       0.00007670       0.00010380       0.01512383
Pt       8.42164141       4.86223719      19.95723428        4       0.00007435       0.00058170       0.01529733
Pt       1.40360726       0.81037260      22.29206791        3      -0.00061997      -0.00026303      -0.04364387
Pt       4.21082130       0.81037249      22.29206785        3      -0.00000389       0.00000522      -0.04625924
Pt       7.01803472       0.81037257      22.29206783        3       0.00073654      -0.00051760      -0.04379936
Pt       2.80721450       3.24149124      22.29206777        3       0.00008086       0.00089277      -0.04380805
Pt       5.61442762       3.24149124      22.29206789        3       0.00008448       0.00066867      -0.04364770
Pt       8.42164156       3.24149128      22.29206809        3       0.00000606      -0.00000411      -0.04458675
Pt       4.21082092       5.67260996      22.29206799        3       0.00000026       0.00000247      -0.04814700
Pt       7.01803487       5.67261037      22.29206782        3      -0.00082086      -0.00038343      -0.04379695
Pt       9.82524820       5.67261064      22.29206809        3       0.00054858      -0.00042181      -0.04362982
Pt      -0.00000052       1.62074570      24.58417379        2       0.00044082      -0.00858977       0.01206685
Pt       2.80721442       1.62074548      24.58417394        2       0.00298603      -0.00188576       0.02919991
Pt       5.61442780       1.62074537      24.58417373        2      -0.00311274      -0.00167495       0.02921431
Pt       1.40360637       4.05186438      24.58417386        2       0.00719998       0.00468035       0.01202805
Pt       4.21082089       4.05186400      24.58417379        2       0.00044872      -0.00824778       0.02128553
Pt       7.01803504       4.05186405      24.58417405        2      -0.00764916       0.00392294       0.01206340
Pt       2.80721281       6.48298343      24.58417366        2      -0.00738558       0.00373787       0.02134499
Pt       5.61442797       6.48298326      24.58417386        2       0.00693904       0.00453005       0.02136279
Pt       8.42164223       6.48298340      24.58417377        2       0.00011399       0.00351497       0.02926520
Pt       0.00022217      -0.00418287      26.91513148        1      -0.00058407       0.02542670       0.00350493
Pt       2.80861502       0.00049986      26.91681941        1      -0.00443252      -0.00150299      -0.00616900
Pt       5.61328658       0.00095098      26.91682424        1       0.00355952      -0.00301054      -0.00618754
Pt       1.39973159       2.43329797      26.91019211        1       0.03385521      -0.01957946       0.02486931
Pt       4.21055452       2.42967318      26.91680699        1       0.00090325       0.00453500      -0.00612341
Pt       7.02184799       2.43340321      26.91019882        1      -0.03381220      -0.01967854       0.02483337
Pt       2.81071533       4.86452210      26.91513099        1      -0.02170613      -0.01317505       0.00354193
Pt       5.61069539       4.86413697      26.91513260        1       0.02231654      -0.01214491       0.00352268
Pt       8.42170432       4.85778806      26.91020691        1      -0.00009503       0.03916507       0.02483344
C        4.21082655       5.67260388      32.16526827        0       0.00000241      -0.00000901       0.01166612
O        4.21081935       5.67260880      33.34648111        0      -0.00000163       0.00000363       0.00270143
O        4.21083405       5.67259827      30.98484269        0      -0.00000194       0.00000493      -0.00502128
