39
Lattice="8.421641763931781 0.0 0.0 4.2108208819658905 7.293355709136913 0.0 0.0 0.0 46.87624170604845" Properties=species:S:1:pos:R:3:tags:I:1:forces:R:3 charge=0 spin=0 energy=-209.36741446589429 free_energy=-209.36741446589429 stress="0.010531287640333176 -4.088953620140501e-09 -2.641810770143138e-09 -4.088953620140501e-09 0.010531287640333176 1.2042172592430234e-08 -2.641810770143138e-09 1.2042172592430234e-08 2.650407077453565e-05" pbc="T T T"
Pt      -0.00000001       0.00000022      19.95723425        4      -0.00006386      -0.00034062       0.01517031
Pt       2.80721397      -0.00000009      19.95723437        4       0.00002347      -0.00001362       0.01532504
Pt       5.61442779      -0.00000006      19.95723442        4       0.00000094       0.00003349       0.01531756
Pt       1.40360720       2.43111836      19.95723428        4      -0.00045178       0.00011936       0.01533671
Pt       4.21082081       2.43111834      19.95723435        4      -0.00002468      -0.00001450       0.01533034
Pt       7.01803481       2.43111842      19.95723424        4       0.00032733       0.00033013       0.01533577
Pt       2.80721405       4.86223723      19.95723396        4       0.00032607       0.00010745       0.01516955
Pt       5.61442805       4.86223729      19.95723414        4      -0.00025977       0.00022329       0.01516694
Pt       8.42164141       4.86223719      19.95723428        4       0.00012399      -0.00044926       0.01532903
Pt       1.40360726       0.81037260      22.29206791        3       0.00035139       0.00039092      -0.04640586
Pt       4.21082130       0.81037249      22.29206785        3      -0.00000267       0.00000517      -0.04853128
Pt       7.01803472       0.81037257      22.29206783        3      -0.00049549      -0.00010696      -0.04641766
Pt       2.80721450       3.24149124      22.29206777        3       0.00034063      -0.00037495      -0.04642958
Pt       5.61442762       3.24149124      22.29206789        3       0.00016296      -0.00049918      -0.04641212
Pt       8.42164156       3.24149128      22.29206809        3       0.00000364      -0.00000059      -0.03999809
Pt       4.21082092       5.67260996      22.29206799        3      -0.00000265       0.00000240      -0.04141512
Pt       7.01803487       5.67261037      22.29206782        3       0.00014687       0.00047804      -0.04643587
Pt       9.82524820       5.67261064      22.29206809        3      -0.00050575       0.00009414      -0.04641319
Pt      -0.00000052       1.62074570      24.58417379        2       0.00026216       0.00630599       0.06050243
Pt       2.80721442       1.62074548      24.58417394        2      -0.00813526       0.00407223       0.03665382
Pt       5.61442780       1.62074537      24.58417373        2       0.00756735       0.00503674       0.03661143
Pt       1.40360637       4.05186438      24.58417386        2      -0.00557452      -0.00292860       0.06058475
Pt       4.21082089       4.05186400      24.58417379        2       0.00017539       0.01346415       0.04236767
Pt       7.01803504       4.05186405      24.58417405        2       0.00532749      -0.00334522       0.06055620
Pt       2.80721281       6.48298343      24.58417366        2       0.01157172      -0.00690099       0.04235686
Pt       5.61442797       6.48298326      24.58417386        2      -0.01174104      -0.00657195       0.04236752
Pt       8.42164223       6.48298340      24.58417377        2       0.00054123      -0.00908443       0.03669035
Pt       0.00028925       0.00336367      26.92235459        1      -0.00095569      -0.02339121      -0.02661977
Pt       2.80444808      -0.00220893      26.91246967        1       0.01441674       0.01101884       0.01316116
Pt       5.61772591      -0.00127108      26.91246498        1      -0.01676379       0.00691203       0.01319250
Pt       1.40507901       2.43012918      26.92333131        1      -0.01587489       0.00937103      -0.03336435
Pt       4.21028335       2.43461650      26.91247190        1       0.00231841      -0.01794155       0.01315062
Pt       7.01643527       2.43033793      26.92332506        1       0.01606517       0.00912294      -0.03334868
Pt       2.80416503       4.86082364      26.92235823        1       0.02065913       0.01079715      -0.02662813
Pt       5.61718675       4.86030960      26.92235780        1      -0.01972058       0.01253334      -0.02665205
Pt       8.42176139       4.86402603      26.92333636        1      -0.00013931      -0.01845394      -0.03339667
C        4.21082231       5.67259742      32.38236867        0      -0.00000036      -0.00000963      -0.02468936
O        4.21082271       5.67261942      33.56348416        0       0.00000007       0.00000446       0.01246358
O        4.21082186       5.67257397      31.20186668        0       0.00000008       0.00000395       0.00501780
