39
Lattice="8.421641763931781 0.0 0.0 4.2108208819658905 7.293355709136913 0.0 0.0 0.0 46.87624170604845" Properties=species:S:1:pos:R:3:tags:I:1:forces:R:3 charge=0 spin=0 energy=-209.3679218206306 free_energy=-209.3679218206306 stress="0.01042836345732212 -3.207045184971946e-10 -1.2316247577359718e-08 -3.207045184971946e-10 0.010428400710225105 1.2173804009307787e-07 -1.2316247577359718e-08 1.2173804009307787e-07 -0.00019071019778493792" pbc="T T T"
Pt      -0.00000001       0.00000022      19.95723425        4      -0.00007212      -0.00039288       0.01513196
Pt       2.80721397      -0.00000009      19.95723437        4      -0.00014240      -0.00000877       0.01537409
Pt       5.61442779      -0.00000006      19.95723442        4       0.00008041      -0.00011013       0.01536368
Pt       1.40360720       2.43111836      19.95723428        4       0.00036307      -0.00022537       0.01530038
Pt       4.21082081       2.43111834      19.95723435        4       0.00006035       0.00012420       0.01538068
Pt       7.01803481       2.43111842      19.95723424        4      -0.00037947      -0.00020244       0.01529919
Pt       2.80721405       4.86223723      19.95723396        4       0.00037856       0.00012638       0.01513878
Pt       5.61442805       4.86223729      19.95723414        4      -0.00030478       0.00025761       0.01513931
Pt       8.42164141       4.86223719      19.95723428        4       0.00001529       0.00043035       0.01529866
Pt       1.40360726       0.81037260      22.29206791        3      -0.00099905       0.00013001      -0.04460574
Pt       4.21082130       0.81037249      22.29206785        3      -0.00000411       0.00000796      -0.04279407
Pt       7.01803472       0.81037257      22.29206783        3       0.00106937       0.00007660      -0.04463003
Pt       2.80721450       3.24149124      22.29206777        3      -0.00060168       0.00089410      -0.04462750
Pt       5.61442762       3.24149124      22.29206789        3       0.00060550       0.00080130      -0.04459874
Pt       8.42164156       3.24149128      22.29206809        3       0.00000310       0.00000180      -0.04599805
Pt       4.21082092       5.67260996      22.29206799        3      -0.00000423       0.00000498      -0.04482413
Pt       7.01803487       5.67261037      22.29206782        3      -0.00048096      -0.00096652      -0.04462415
Pt       9.82524820       5.67261064      22.29206809        3       0.00039762      -0.00093734      -0.04459202
Pt      -0.00000052       1.62074570      24.58417379        2       0.00051742      -0.01391007       0.01145098
Pt       2.80721442       1.62074548      24.58417394        2       0.00931366      -0.00533949       0.01952286
Pt       5.61442780       1.62074537      24.58417373        2      -0.00928151      -0.00538744       0.01950830
Pt       1.40360637       4.05186438      24.58417386        2       0.01179674       0.00740770       0.01147399
Pt       4.21082089       4.05186400      24.58417379        2       0.00035730       0.00120608       0.03141756
Pt       7.01803504       4.05186405      24.58417405        2      -0.01230223       0.00653956       0.01147327
Pt       2.80721281       6.48298343      24.58417366        2       0.00085335      -0.00091977       0.03144995
Pt       5.61442797       6.48298326      24.58417386        2      -0.00119964      -0.00028645       0.03146352
Pt       8.42164223       6.48298340      24.58417377        2      -0.00003838       0.01071892       0.01958209
Pt       0.00013456      -0.00242398      26.91972938        1      -0.00038487       0.00843424      -0.01636255
Pt       2.80635332      -0.00073462      26.91593274        1       0.00604662       0.00407992      -0.00062426
Pt       5.61549334      -0.00038220      26.91593392        1      -0.00654201       0.00319234      -0.00063231
Pt       1.40340780       2.43100505      26.90646656        1       0.00737719      -0.00356042       0.03989188
Pt       4.21061647       2.43223559      26.91593121        1       0.00050842      -0.00726303      -0.00061467
Pt       7.01803260       2.43135602      26.90646798        1      -0.00675015      -0.00466161       0.03989079
Pt       2.80924775       4.86356516      26.91973824        1      -0.00713596      -0.00455655      -0.01639283
Pt       5.61226254       4.86333499      26.91973938        1       0.00751617      -0.00387591      -0.01638250
Pt       8.42184504       4.86212166      26.90647802        1      -0.00063685       0.00817071       0.03984993
C        4.21081853       5.67260501      32.18269973        0      -0.00000332      -0.00000341       0.03613643
O        4.21082806       5.67261816      33.36390919        0       0.00000213       0.00000242       0.00554706
O        4.21080817       5.67259052      31.00258118        0       0.00000132       0.00000064      -0.03378176
