39
Lattice="8.421641763931781 0.0 0.0 4.2108208819658905 7.293355709136913 0.0 0.0 0.0 46.87624170604845" Properties=species:S:1:pos:R:3:tags:I:1:forces:R:3 charge=0 spin=0 energy=-209.36829756831128 free_energy=-209.36829756831128 stress="0.01038721390068531 -2.0201621708793027e-08 -1.14596199196626e-08 -2.0201621708793027e-08 0.010387275367975235 -6.657638884632888e-09 -1.14596199196626e-08 -6.657638884632888e-09 -0.00024505279725417495" pbc="T T T"
Pt      -0.00000001       0.00000022      19.95723425        4      -0.00020435       0.00007569       0.01512070
Pt       2.80721397      -0.00000009      19.95723437        4       0.00014061       0.00022996       0.01525246
Pt       5.61442779      -0.00000006      19.95723442        4      -0.00026879       0.00001412       0.01524417
Pt       1.40360720       2.43111836      19.95723428        4      -0.00004359      -0.00002466       0.01524604
Pt       4.21082081       2.43111834      19.95723435        4       0.00012619      -0.00023553       0.01525115
Pt       7.01803481       2.43111842      19.95723424        4      -0.00000282       0.00005228       0.01524640
Pt       2.80721405       4.86223723      19.95723396        4       0.00003834      -0.00022202       0.01512138
Pt       5.61442805       4.86223729      19.95723414        4       0.00016826       0.00013839       0.01512118
Pt       8.42164141       4.86223719      19.95723428        4       0.00004567      -0.00002500       0.01524784
Pt       1.40360726       0.81037260      22.29206791        3      -0.00041310      -0.00066500      -0.04503566
Pt       4.21082130       0.81037249      22.29206785        3      -0.00000241       0.00001082      -0.04398229
Pt       7.01803472       0.81037257      22.29206783        3       0.00056331      -0.00125408      -0.04489117
Pt       2.80721450       3.24149124      22.29206777        3       0.00080786       0.00112266      -0.04490491
Pt       5.61442762       3.24149124      22.29206789        3      -0.00036968       0.00069447      -0.04503958
Pt       8.42164156       3.24149128      22.29206809        3       0.00000329       0.00000044      -0.03835668
Pt       4.21082092       5.67260996      22.29206799        3      -0.00000012       0.00000613      -0.04901742
Pt       7.01803487       5.67261037      22.29206782        3      -0.00137948       0.00013903      -0.04489631
Pt       9.82524820       5.67261064      22.29206809        3       0.00079148      -0.00003423      -0.04502673
Pt      -0.00000052       1.62074570      24.58417379        2       0.00048545       0.00723539       0.00642257
Pt       2.80721442       1.62074548      24.58417394        2       0.00260544      -0.00159026       0.01547954
Pt       5.61442780       1.62074537      24.58417373        2      -0.00269694      -0.00144706       0.01547289
Pt       1.40360637       4.05186438      24.58417386        2      -0.00650165      -0.00320393       0.00641767
Pt       4.21082089       4.05186400      24.58417379        2      -0.00024408      -0.00744151       0.01021908
Pt       7.01803504       4.05186405      24.58417405        2       0.00600560      -0.00403646       0.00642843
Pt       2.80721281       6.48298343      24.58417366        2      -0.00630057       0.00391759       0.01023082
Pt       5.61442797       6.48298326      24.58417386        2       0.00656080       0.00349507       0.01024290
Pt       8.42164223       6.48298340      24.58417377        2       0.00007000       0.00304694       0.01550093
Pt       0.00123023       0.00271512      26.90915847        1      -0.00485433      -0.02161070       0.02692881
Pt       2.80913476       0.00052538      26.91496736        1      -0.01131333      -0.00475442       0.00726395
Pt       5.61300584       0.00139368      26.91496794        1       0.00974415      -0.00743933       0.00728942
Pt       1.40490348       2.43069114      26.91141146        1      -0.00563596       0.00241610       0.02084104
Pt       4.21031684       2.42918636      26.91497604        1       0.00154177       0.01218332       0.00723344
Pt       7.01701673       2.43019891      26.91141191        1       0.00493506       0.00367457       0.02083264
Pt       2.80423817       4.86193565      26.90916028        1       0.02113163       0.00659953       0.02698699
Pt       5.61616981       4.85980486      26.90916216        1      -0.01625514       0.01502668       0.02693324
Pt       8.42135556       4.86356914      26.91141020        1       0.00072176      -0.00609469       0.02089449
C        4.21083760       5.67267151      32.22489545        0       0.00007789       0.00034159       0.00502026
O        4.21085074       5.67276202      33.40608921        0      -0.00003906      -0.00017076       0.00494715
O        4.21083630       5.67263492      31.04448477        0      -0.00003915      -0.00017099      -0.00728692
