39
Lattice="8.421641763931781 0.0 0.0 4.2108208819658905 7.293355709136913 0.0 0.0 0.0 46.87624170604845" Properties=species:S:1:pos:R:3:tags:I:1:forces:R:3 charge=0 spin=0 energy=-209.36830138300854 free_energy=-209.36830138300854 stress="0.010387237183749676 -1.812296801517732e-08 -1.3923216357625279e-08 -1.812296801517732e-08 0.010387292131781578 -8.192923672822872e-09 -1.3923216357625279e-08 -8.192923672822872e-09 -0.0002445348654873669" pbc="T T T"
Pt      -0.00000001       0.00000022      19.95723425        4      -0.00020432       0.00007579       0.01512057
Pt       2.80721397      -0.00000009      19.95723437        4       0.00014064       0.00023019       0.01525252
Pt       5.61442779      -0.00000006      19.95723442        4      -0.00026899       0.00001435       0.01524391
Pt       1.40360720       2.43111836      19.95723428        4      -0.00004333      -0.00002471       0.01524627
Pt       4.21082081       2.43111834      19.95723435        4       0.00012638      -0.00023607       0.01525102
Pt       7.01803481       2.43111842      19.95723424        4      -0.00000302       0.00005209       0.01524659
Pt       2.80721405       4.86223723      19.95723396        4       0.00003833      -0.00022213       0.01512120
Pt       5.61442805       4.86223729      19.95723414        4       0.00016833       0.00013839       0.01512097
Pt       8.42164141       4.86223719      19.95723428        4       0.00004545      -0.00002466       0.01524794
Pt       1.40360726       0.81037260      22.29206791        3      -0.00041342      -0.00066457      -0.04503445
Pt       4.21082130       0.81037249      22.29206785        3      -0.00000269       0.00001123      -0.04397990
Pt       7.01803472       0.81037257      22.29206783        3       0.00056331      -0.00125371      -0.04489074
Pt       2.80721450       3.24149124      22.29206777        3       0.00080727       0.00112315      -0.04490547
Pt       5.61442762       3.24149124      22.29206789        3      -0.00036961       0.00069454      -0.04504034
Pt       8.42164156       3.24149128      22.29206809        3       0.00000312       0.00000016      -0.03835959
Pt       4.21082092       5.67260996      22.29206799        3      -0.00000052       0.00000635      -0.04901821
Pt       7.01803487       5.67261037      22.29206782        3      -0.00137944       0.00013818      -0.04489499
Pt       9.82524820       5.67261064      22.29206809        3       0.00079144      -0.00003454      -0.04502751
Pt      -0.00000052       1.62074570      24.58417379        2       0.00048784       0.00723589       0.00644064
Pt       2.80721442       1.62074548      24.58417394        2       0.00260165      -0.00159298       0.01547480
Pt       5.61442780       1.62074537      24.58417373        2      -0.00269468      -0.00144825       0.01546239
Pt       1.40360637       4.05186438      24.58417386        2      -0.00650355      -0.00320441       0.00643999
Pt       4.21082089       4.05186400      24.58417379        2      -0.00024430      -0.00744105       0.01021701
Pt       7.01803504       4.05186405      24.58417405        2       0.00600753      -0.00403534       0.00644738
Pt       2.80721281       6.48298343      24.58417366        2      -0.00630100       0.00391764       0.01023204
Pt       5.61442797       6.48298326      24.58417386        2       0.00656381       0.00349695       0.01024598
Pt       8.42164223       6.48298340      24.58417377        2       0.00006832       0.00304474       0.01549820
Pt       0.00122988       0.00271099      26.90916072        1      -0.00485200      -0.02157727       0.02692406
Pt       2.80913677       0.00052575      26.91496789        1      -0.01133069      -0.00476154       0.00726238
Pt       5.61300465       0.00139398      26.91496822        1       0.00975565      -0.00744788       0.00729720
Pt       1.40490802       2.43068856      26.91141233        1      -0.00567684       0.00243651       0.02082577
Pt       4.21031682       2.42918373      26.91497393        1       0.00154302       0.01220084       0.00724871
Pt       7.01701242       2.43019623      26.91141192        1       0.00497575       0.00369841       0.02082403
Pt       2.80424187       4.86193727      26.90916344        1       0.02110138       0.00658430       0.02698084
Pt       5.61616608       4.85980681      26.90916475        1      -0.01622372       0.01500820       0.02692967
Pt       8.42135519       4.86357393      26.91141084        1       0.00072266      -0.00613842       0.02087840
C        4.21083726       5.67267290      32.22498553        0       0.00006900       0.00034145       0.00400861
O        4.21085215       5.67276243      33.40618209        0      -0.00003406      -0.00017073       0.00488014
O        4.21083357       5.67263747      31.04456557        0      -0.00003473      -0.00017088      -0.00621822
