39
Lattice="8.421641763931781 0.0 0.0 4.2108208819658905 7.293355709136913 0.0 0.0 0.0 46.87624170604845" Properties=species:S:1:pos:R:3:tags:I:1:forces:R:3 charge=0 spin=0 energy=-209.3678388509651 free_energy=-209.3678388509651 stress="0.010427650064229965 -8.867963252612299e-09 1.2770248858373634e-08 -8.867963252612299e-09 0.010427625849843025 -2.843085322723482e-09 1.2770248858373634e-08 -2.843085322723482e-09 -0.00017965141159947962" pbc="T T T"
Pt      -0.00000001       0.00000022      19.95723425        4      -0.00012850       0.00001272       0.01511885
Pt       2.80721397      -0.00000009      19.95723437        4      -0.00038571      -0.00013418       0.01542154
Pt       5.61442779      -0.00000006      19.95723442        4       0.00030961      -0.00026085       0.01541230
Pt       1.40360720       2.43111836      19.95723428        4       0.00046579      -0.00035163       0.01529627
Pt       4.21082081       2.43111834      19.95723435        4       0.00007474       0.00039901       0.01542451
Pt       7.01803481       2.43111842      19.95723424        4      -0.00053927      -0.00022779       0.01529777
Pt       2.80721405       4.86223723      19.95723396        4       0.00005518      -0.00012466       0.01512328
Pt       5.61442805       4.86223729      19.95723414        4       0.00007636       0.00010397       0.01512485
Pt       8.42164141       4.86223719      19.95723428        4       0.00007397       0.00058106       0.01529799
Pt       1.40360726       0.81037260      22.29206791        3      -0.00062171      -0.00026156      -0.04364664
Pt       4.21082130       0.81037249      22.29206785        3      -0.00000339       0.00000787      -0.04625579
Pt       7.01803472       0.81037257      22.29206783        3       0.00073627      -0.00051701      -0.04380028
Pt       2.80721450       3.24149124      22.29206777        3       0.00007950       0.00089507      -0.04380931
Pt       5.61442762       3.24149124      22.29206789        3       0.00008502       0.00066837      -0.04364951
Pt       8.42164156       3.24149128      22.29206809        3       0.00000500      -0.00000333      -0.04458693
Pt       4.21082092       5.67260996      22.29206799        3       0.00000001       0.00000360      -0.04814104
Pt       7.01803487       5.67261037      22.29206782        3      -0.00082160      -0.00038305      -0.04379886
Pt       9.82524820       5.67261064      22.29206809        3       0.00054852      -0.00042090      -0.04363167
Pt      -0.00000052       1.62074570      24.58417379        2       0.00043654      -0.00858874       0.01210123
Pt       2.80721442       1.62074548      24.58417394        2       0.00298698      -0.00188514       0.02919517
Pt       5.61442780       1.62074537      24.58417373        2      -0.00311027      -0.00167622       0.02920943
Pt       1.40360637       4.05186438      24.58417386        2       0.00720575       0.00467754       0.01205535
Pt       4.21082089       4.05186400      24.58417379        2       0.00044828      -0.00823039       0.02131060
Pt       7.01803504       4.05186405      24.58417405        2      -0.00764890       0.00392613       0.01209473
Pt       2.80721281       6.48298343      24.58417366        2      -0.00736584       0.00373207       0.02136591
Pt       5.61442797       6.48298326      24.58417386        2       0.00692527       0.00452161       0.02138563
Pt       8.42164223       6.48298340      24.58417377        2       0.00011362       0.00352035       0.02925511
Pt       0.00022224      -0.00418095      26.91514013        1      -0.00058324       0.02541064       0.00346155
Pt       2.80861163       0.00049780      26.91681811        1      -0.00441977      -0.00149855      -0.00612486
Pt       5.61329052       0.00094850      26.91682266        1       0.00354255      -0.00299798      -0.00617310
Pt       1.39973948       2.43329353      26.91019391        1       0.03378712      -0.01954465       0.02484819
Pt       4.21055448       2.42967679      26.91680546        1       0.00089849       0.00452003      -0.00611194
Pt       7.02184015       2.43339848      26.91020100        1      -0.03373634      -0.01964092       0.02477567
Pt       2.81071373       4.86452113      26.91514027        1      -0.02169026      -0.01317185       0.00349791
Pt       5.61069706       4.86413602      26.91514124        1       0.02230076      -0.01213987       0.00347705
Pt       8.42170413       4.85779732      26.91020865        1      -0.00010022       0.03908103       0.02482731
C        4.21082652       5.67260413      32.16523461        0       0.00000033      -0.00000538       0.01167107
O        4.21081884       5.67260935      33.34644982        0      -0.00000040       0.00000168       0.00232001
O        4.21083417       5.67259841      30.98480428        0      -0.00000050       0.00000189      -0.00463926
