39
Lattice="8.421641763931781 0.0 0.0 4.2108208819658905 7.293355709136913 0.0 0.0 0.0 46.87624170604845" Properties=species:S:1:pos:R:3:tags:I:1:forces:R:3 charge=0 spin=0 energy=-209.36741637324292 free_energy=-209.36741637324292 stress="0.010531280189752579 -3.999025111056653e-09 -6.017443765493624e-10 -3.999025111056653e-09 0.010531284846365452 1.0222457547115482e-08 -6.017443765493624e-10 1.0222457547115482e-08 2.6489049560041167e-05" pbc="T T T"
Pt      -0.00000001       0.00000022      19.95723425        4      -0.00006406      -0.00034069       0.01517021
Pt       2.80721397      -0.00000009      19.95723437        4       0.00002359      -0.00001361       0.01532487
Pt       5.61442779      -0.00000006      19.95723442        4       0.00000075       0.00003370       0.01531735
Pt       1.40360720       2.43111836      19.95723428        4      -0.00045198       0.00011950       0.01533656
Pt       4.21082081       2.43111834      19.95723435        4      -0.00002468      -0.00001451       0.01533030
Pt       7.01803481       2.43111842      19.95723424        4       0.00032751       0.00033024       0.01533571
Pt       2.80721405       4.86223723      19.95723396        4       0.00032597       0.00010736       0.01516947
Pt       5.61442805       4.86223729      19.95723414        4      -0.00025971       0.00022321       0.01516694
Pt       8.42164141       4.86223719      19.95723428        4       0.00012402      -0.00044925       0.01532901
Pt       1.40360726       0.81037260      22.29206791        3       0.00035179       0.00039085      -0.04640634
Pt       4.21082130       0.81037249      22.29206785        3      -0.00000235       0.00000496      -0.04853140
Pt       7.01803472       0.81037257      22.29206783        3      -0.00049570      -0.00010696      -0.04641790
Pt       2.80721450       3.24149124      22.29206777        3       0.00034088      -0.00037503      -0.04642961
Pt       5.61442762       3.24149124      22.29206789        3       0.00016290      -0.00049901      -0.04641275
Pt       8.42164156       3.24149128      22.29206809        3       0.00000340      -0.00000078      -0.03999726
Pt       4.21082092       5.67260996      22.29206799        3      -0.00000263       0.00000218      -0.04141505
Pt       7.01803487       5.67261037      22.29206782        3       0.00014668       0.00047817      -0.04643587
Pt       9.82524820       5.67261064      22.29206809        3      -0.00050598       0.00009414      -0.04641360
Pt      -0.00000052       1.62074570      24.58417379        2       0.00026249       0.00630672       0.06050152
Pt       2.80721442       1.62074548      24.58417394        2      -0.00813538       0.00407194       0.03665332
Pt       5.61442780       1.62074537      24.58417373        2       0.00756689       0.00503644       0.03661018
Pt       1.40360637       4.05186438      24.58417386        2      -0.00557540      -0.00292932       0.06058247
Pt       4.21082089       4.05186400      24.58417379        2       0.00017399       0.01346503       0.04236807
Pt       7.01803504       4.05186405      24.58417405        2       0.00532996      -0.00334662       0.06055219
Pt       2.80721281       6.48298343      24.58417366        2       0.01157305      -0.00690157       0.04235888
Pt       5.61442797       6.48298326      24.58417386        2      -0.01174213      -0.00657063       0.04236907
Pt       8.42164223       6.48298340      24.58417377        2       0.00054131      -0.00908384       0.03668949
Pt       0.00028936       0.00336533      26.92235307        1      -0.00095450      -0.02340512      -0.02662113
Pt       2.80444825      -0.00220867      26.91246977        1       0.01441388       0.01101584       0.01316035
Pt       5.61772605      -0.00127131      26.91246428        1      -0.01676184       0.00691325       0.01319364
Pt       1.40507944       2.43012906      26.92333200        1      -0.01587768       0.00937058      -0.03336274
Pt       4.21028328       2.43461648      26.91247176        1       0.00231845      -0.01794065       0.01315068
Pt       7.01643495       2.43033754      26.92332517        1       0.01606530       0.00912380      -0.03334734
Pt       2.80416340       4.86082264      26.92235673        1       0.02067269       0.01080377      -0.02663262
Pt       5.61718821       4.86030869      26.92235611        1      -0.01973101       0.01253994      -0.02664976
Pt       8.42176160       4.86402626      26.92333672        1      -0.00014018      -0.01845428      -0.03339531
C        4.21082234       5.67259755      32.38240856        0      -0.00000039      -0.00000241      -0.02467804
O        4.21082258       5.67261842      33.56352130        0      -0.00000001       0.00000158       0.01246036
O        4.21082186       5.67257596      31.20190516        0      -0.00000004       0.00000100       0.00501576
