39
Lattice="8.421641763931781 0.0 0.0 4.2108208819658905 7.293355709136913 0.0 0.0 0.0 46.87624170604845" Properties=species:S:1:pos:R:3:tags:I:1:forces:R:3 charge=0 spin=0 energy=-209.36792277430493 free_energy=-209.36792277430493 stress="0.010428359732031822 -2.7939381364028293e-10 -1.1710029390599175e-08 -2.7939381364028293e-10 0.010428395122289658 1.2166438523308898e-07 -1.1710029390599175e-08 1.2166438523308898e-07 -0.00019087499822489917" pbc="T T T"
Pt      -0.00000001       0.00000022      19.95723425        4      -0.00007215      -0.00039283       0.01513191
Pt       2.80721397      -0.00000009      19.95723437        4      -0.00014256      -0.00000887       0.01537411
Pt       5.61442779      -0.00000006      19.95723442        4       0.00008075      -0.00011007       0.01536353
Pt       1.40360720       2.43111836      19.95723428        4       0.00036324      -0.00022540       0.01530023
Pt       4.21082081       2.43111834      19.95723435        4       0.00006054       0.00012442       0.01538060
Pt       7.01803481       2.43111842      19.95723424        4      -0.00037987      -0.00020283       0.01529926
Pt       2.80721405       4.86223723      19.95723396        4       0.00037838       0.00012662       0.01513870
Pt       5.61442805       4.86223729      19.95723414        4      -0.00030465       0.00025763       0.01513912
Pt       8.42164141       4.86223719      19.95723428        4       0.00001529       0.00043087       0.01529858
Pt       1.40360726       0.81037260      22.29206791        3      -0.00099949       0.00013006      -0.04460547
Pt       4.21082130       0.81037249      22.29206785        3      -0.00000448       0.00000756      -0.04279463
Pt       7.01803472       0.81037257      22.29206783        3       0.00106979       0.00007631      -0.04462945
Pt       2.80721450       3.24149124      22.29206777        3      -0.00060180       0.00089446      -0.04462698
Pt       5.61442762       3.24149124      22.29206789        3       0.00060590       0.00080159      -0.04459769
Pt       8.42164156       3.24149128      22.29206809        3       0.00000326       0.00000152      -0.04600035
Pt       4.21082092       5.67260996      22.29206799        3      -0.00000407       0.00000559      -0.04482538
Pt       7.01803487       5.67261037      22.29206782        3      -0.00048054      -0.00096667      -0.04462364
Pt       9.82524820       5.67261064      22.29206809        3       0.00039750      -0.00093776      -0.04459067
Pt      -0.00000052       1.62074570      24.58417379        2       0.00051614      -0.01391407       0.01144829
Pt       2.80721442       1.62074548      24.58417394        2       0.00931447      -0.00534065       0.01952033
Pt       5.61442780       1.62074537      24.58417373        2      -0.00928024      -0.00538785       0.01951129
Pt       1.40360637       4.05186438      24.58417386        2       0.01179986       0.00741039       0.01146859
Pt       4.21082089       4.05186400      24.58417379        2       0.00035717       0.00120314       0.03141396
Pt       7.01803504       4.05186405      24.58417405        2      -0.01230622       0.00653987       0.01147149
Pt       2.80721281       6.48298343      24.58417366        2       0.00084932      -0.00091749       0.03144976
Pt       5.61442797       6.48298326      24.58417386        2      -0.00119754      -0.00028553       0.03146208
Pt       8.42164223       6.48298340      24.58417377        2      -0.00003728       0.01072038       0.01958292
Pt       0.00013428      -0.00242663      26.91972928        1      -0.00038439       0.00845248      -0.01635901
Pt       2.80635379      -0.00073409      26.91593335        1       0.00604382       0.00407583      -0.00062468
Pt       5.61549248      -0.00038150      26.91593528        1      -0.00653767       0.00318815      -0.00064077
Pt       1.40340631       2.43100568      26.90646500        1       0.00738297      -0.00356620       0.03990034
Pt       4.21061631       2.43223443      26.91593180        1       0.00051194      -0.00725928      -0.00061261
Pt       7.01803375       2.43135651      26.90646650        1      -0.00676210      -0.00466596       0.03989062
Pt       2.80924982       4.86356615      26.91973807        1      -0.00715155      -0.00456231      -0.01638884
Pt       5.61225997       4.86333617      26.91973860        1       0.00753540      -0.00388434      -0.01638030
Pt       8.42184498       4.86212007      26.90647698        1      -0.00063915       0.00818161       0.03985670
C        4.21081882       5.67260499      32.18268870        0      -0.00000328      -0.00000329       0.03646732
O        4.21082854       5.67261805      33.36389956        0       0.00000195       0.00000247       0.00557259
O        4.21080849       5.67259141      31.00257264        0       0.00000122       0.00000063      -0.03414172
