39
Lattice="8.421641763931781 0.0 0.0 4.2108208819658905 7.293355709136913 0.0 0.0 0.0 46.87624170604845" Properties=species:S:1:pos:R:3:tags:I:1:forces:R:3 charge=0 spin=0 energy=-209.36741828059155 free_energy=-209.36741828059155 stress="0.010531273670494556 -5.014129111913235e-09 -8.194845357856195e-10 -5.014129111913235e-09 0.010531273670494556 1.0062144895073288e-08 -8.194845357856195e-10 1.0062144895073288e-08 2.6643063392839395e-05" pbc="T T T"
Pt      -0.00000001       0.00000022      19.95723425        4      -0.00006387      -0.00034063       0.01517025
Pt       2.80721397      -0.00000009      19.95723437        4       0.00002340      -0.00001357       0.01532513
Pt       5.61442779      -0.00000006      19.95723442        4       0.00000067       0.00003364       0.01531743
Pt       1.40360720       2.43111836      19.95723428        4      -0.00045172       0.00011930       0.01533671
Pt       4.21082081       2.43111834      19.95723435        4      -0.00002463      -0.00001445       0.01533047
Pt       7.01803481       2.43111842      19.95723424        4       0.00032731       0.00032992       0.01533562
Pt       2.80721405       4.86223723      19.95723396        4       0.00032604       0.00010756       0.01516936
Pt       5.61442805       4.86223729      19.95723414        4      -0.00025985       0.00022331       0.01516709
Pt       8.42164141       4.86223719      19.95723428        4       0.00012373      -0.00044897       0.01532890
Pt       1.40360726       0.81037260      22.29206791        3       0.00035150       0.00039098      -0.04640584
Pt       4.21082130       0.81037249      22.29206785        3      -0.00000232       0.00000468      -0.04852938
Pt       7.01803472       0.81037257      22.29206783        3      -0.00049498      -0.00010664      -0.04641705
Pt       2.80721450       3.24149124      22.29206777        3       0.00034081      -0.00037531      -0.04643030
Pt       5.61442762       3.24149124      22.29206789        3       0.00016297      -0.00049899      -0.04641223
Pt       8.42164156       3.24149128      22.29206809        3       0.00000384      -0.00000056      -0.04000018
Pt       4.21082092       5.67260996      22.29206799        3      -0.00000215       0.00000199      -0.04141529
Pt       7.01803487       5.67261037      22.29206782        3       0.00014696       0.00047735      -0.04643667
Pt       9.82524820       5.67261064      22.29206809        3      -0.00050582       0.00009387      -0.04641331
Pt      -0.00000052       1.62074570      24.58417379        2       0.00026077       0.00630082       0.06049901
Pt       2.80721442       1.62074548      24.58417394        2      -0.00813130       0.00407014       0.03664843
Pt       5.61442780       1.62074537      24.58417373        2       0.00756490       0.00503376       0.03661059
Pt       1.40360637       4.05186438      24.58417386        2      -0.00557113      -0.00292629       0.06057559
Pt       4.21082089       4.05186400      24.58417379        2       0.00017530       0.01346483       0.04236804
Pt       7.01803504       4.05186405      24.58417405        2       0.00532365      -0.00334500       0.06054965
Pt       2.80721281       6.48298343      24.58417366        2       0.01157183      -0.00689894       0.04235914
Pt       5.61442797       6.48298326      24.58417386        2      -0.01174341      -0.00657078       0.04236918
Pt       8.42164223       6.48298340      24.58417377        2       0.00054345      -0.00907820       0.03668817
Pt       0.00028933       0.00336317      26.92235481        1      -0.00095407      -0.02338982      -0.02662395
Pt       2.80444781      -0.00220885      26.91246965        1       0.01441828       0.01101856       0.01316135
Pt       5.61772622      -0.00127128      26.91246516        1      -0.01676719       0.00691558       0.01318538
Pt       1.40507975       2.43012896      26.92332819        1      -0.01588031       0.00937051      -0.03334870
Pt       4.21028334       2.43461681      26.91247226        1       0.00232005      -0.01794255       0.01314990
Pt       7.01643475       2.43033746      26.92332175        1       0.01606728       0.00912331      -0.03334221
Pt       2.80416536       4.86082403      26.92235771        1       0.02066146       0.01079590      -0.02662800
Pt       5.61718640       4.86030994      26.92235768        1      -0.01972129       0.01253123      -0.02665304
Pt       8.42176145       4.86402669      26.92333309        1      -0.00013979      -0.01845607      -0.03338059
C        4.21082220       5.67259723      32.38244726        0       0.00000234      -0.00000573      -0.02435291
O        4.21082230       5.67261815      33.56356286        0      -0.00000127       0.00000300       0.01210260
O        4.21082236       5.67257584      31.20194252        0      -0.00000131       0.00000246       0.00504163
