39
Lattice="8.421641763931781 0.0 0.0 4.2108208819658905 7.293355709136913 0.0 0.0 0.0 46.87624170604845" Properties=species:S:1:pos:R:3:tags:I:1:forces:R:3 charge=0 spin=0 energy=-209.36741828059155 free_energy=-209.36741828059155 stress="0.010531298816204071 -3.419869942788978e-09 -3.2476674682868634e-09 -3.419869942788978e-09 0.010531298816204071 1.1172698322070573e-08 -3.2476674682868634e-09 1.1172698322070573e-08 2.6615818569553085e-05" pbc="T T T"
Pt      -0.00000001       0.00000022      19.95723425        4      -0.00006389      -0.00034054       0.01517036
Pt       2.80721397      -0.00000009      19.95723437        4       0.00002354      -0.00001356       0.01532502
Pt       5.61442779      -0.00000006      19.95723442        4       0.00000081       0.00003368       0.01531752
Pt       1.40360720       2.43111836      19.95723428        4      -0.00045195       0.00011936       0.01533681
Pt       4.21082081       2.43111834      19.95723435        4      -0.00002475      -0.00001451       0.01533024
Pt       7.01803481       2.43111842      19.95723424        4       0.00032746       0.00032996       0.01533579
Pt       2.80721405       4.86223723      19.95723396        4       0.00032589       0.00010755       0.01516951
Pt       5.61442805       4.86223729      19.95723414        4      -0.00025963       0.00022301       0.01516705
Pt       8.42164141       4.86223719      19.95723428        4       0.00012397      -0.00044911       0.01532916
Pt       1.40360726       0.81037260      22.29206791        3       0.00035160       0.00039085      -0.04640582
Pt       4.21082130       0.81037249      22.29206785        3      -0.00000245       0.00000479      -0.04853165
Pt       7.01803472       0.81037257      22.29206783        3      -0.00049545      -0.00010690      -0.04641766
Pt       2.80721450       3.24149124      22.29206777        3       0.00034102      -0.00037540      -0.04643009
Pt       5.61442762       3.24149124      22.29206789        3       0.00016278      -0.00049924      -0.04641230
Pt       8.42164156       3.24149128      22.29206809        3       0.00000356      -0.00000069      -0.03999800
Pt       4.21082092       5.67260996      22.29206799        3      -0.00000250       0.00000226      -0.04141548
Pt       7.01803487       5.67261037      22.29206782        3       0.00014687       0.00047790      -0.04643574
Pt       9.82524820       5.67261064      22.29206809        3      -0.00050586       0.00009424      -0.04641316
Pt      -0.00000052       1.62074570      24.58417379        2       0.00026264       0.00630861       0.06050915
Pt       2.80721442       1.62074548      24.58417394        2      -0.00813733       0.00407346       0.03665651
Pt       5.61442780       1.62074537      24.58417373        2       0.00756872       0.00503793       0.03661375
Pt       1.40360637       4.05186438      24.58417386        2      -0.00557629      -0.00292976       0.06059160
Pt       4.21082089       4.05186400      24.58417379        2       0.00017540       0.01346447       0.04236855
Pt       7.01803504       4.05186405      24.58417405        2       0.00532931      -0.00334643       0.06056303
Pt       2.80721281       6.48298343      24.58417366        2       0.01157123      -0.00690071       0.04235600
Pt       5.61442797       6.48298326      24.58417386        2      -0.01174098      -0.00657162       0.04236748
Pt       8.42164223       6.48298340      24.58417377        2       0.00054157      -0.00908644       0.03669224
Pt       0.00028909       0.00336320      26.92235336        1      -0.00095435      -0.02338769      -0.02661352
Pt       2.80444819      -0.00220874      26.91246988        1       0.01441427       0.01101898       0.01316203
Pt       5.61772570      -0.00127113      26.91246495        1      -0.01676263       0.00691250       0.01319356
Pt       1.40507958       2.43012889      26.92333333        1      -0.01588184       0.00937500      -0.03337423
Pt       4.21028342       2.43461645      26.91247228        1       0.00231795      -0.01794001       0.01315094
Pt       7.01643484       2.43033755      26.92332624        1       0.01607132       0.00912699      -0.03335841
Pt       2.80416509       4.86082394      26.92235695        1       0.02065708       0.01079210      -0.02662978
Pt       5.61718637       4.86030990      26.92235697        1      -0.01971858       0.01252903      -0.02665052
Pt       8.42176140       4.86402636      26.92333738        1      -0.00013926      -0.01846069      -0.03340553
C        4.21082231       5.67259718      32.38238910        0      -0.00000026      -0.00000549      -0.02419533
O        4.21082215       5.67261804      33.56350725        0       0.00000053       0.00000316       0.01211727
O        4.21082220       5.67257579      31.20188791        0       0.00000042       0.00000262       0.00486377
