39
Lattice="8.421641763931781 0.0 0.0 4.2108208819658905 7.293355709136913 0.0 0.0 0.0 46.87624170604845" Properties=species:S:1:pos:R:3:tags:I:1:forces:R:3 charge=0 spin=0 energy=-209.36830329035718 free_energy=-209.36830329035718 stress="0.010387281887233257 -1.8050529959623418e-08 -1.397942828162968e-08 -1.8050529959623418e-08 0.010387345217168331 -8.603269208151687e-09 -1.397942828162968e-08 -8.603269208151687e-09 -0.0002448568120598793" pbc="T T T"
Pt      -0.00000001       0.00000022      19.95723425        4      -0.00020423       0.00007593       0.01512065
Pt       2.80721397      -0.00000009      19.95723437        4       0.00014042       0.00022982       0.01525265
Pt       5.61442779      -0.00000006      19.95723442        4      -0.00026852       0.00001417       0.01524415
Pt       1.40360720       2.43111836      19.95723428        4      -0.00004378      -0.00002465       0.01524604
Pt       4.21082081       2.43111834      19.95723435        4       0.00012640      -0.00023540       0.01525093
Pt       7.01803481       2.43111842      19.95723424        4      -0.00000281       0.00005238       0.01524661
Pt       2.80721405       4.86223723      19.95723396        4       0.00003823      -0.00022213       0.01512161
Pt       5.61442805       4.86223729      19.95723414        4       0.00016837       0.00013838       0.01512125
Pt       8.42164141       4.86223719      19.95723428        4       0.00004570      -0.00002517       0.01524782
Pt       1.40360726       0.81037260      22.29206791        3      -0.00041253      -0.00066478      -0.04503561
Pt       4.21082130       0.81037249      22.29206785        3      -0.00000301       0.00001057      -0.04398473
Pt       7.01803472       0.81037257      22.29206783        3       0.00056263      -0.00125407      -0.04489034
Pt       2.80721450       3.24149124      22.29206777        3       0.00080801       0.00112218      -0.04490609
Pt       5.61442762       3.24149124      22.29206789        3      -0.00036974       0.00069417      -0.04504047
Pt       8.42164156       3.24149128      22.29206809        3       0.00000326       0.00000028      -0.03835647
Pt       4.21082092       5.67260996      22.29206799        3      -0.00000047       0.00000633      -0.04901759
Pt       7.01803487       5.67261037      22.29206782        3      -0.00137945       0.00013943      -0.04489611
Pt       9.82524820       5.67261064      22.29206809        3       0.00079142      -0.00003424      -0.04502677
Pt      -0.00000052       1.62074570      24.58417379        2       0.00048439       0.00723803       0.00644693
Pt       2.80721442       1.62074548      24.58417394        2       0.00259561      -0.00158868       0.01548669
Pt       5.61442780       1.62074537      24.58417373        2      -0.00268547      -0.00144306       0.01547962
Pt       1.40360637       4.05186438      24.58417386        2      -0.00650312      -0.00320450       0.00644173
Pt       4.21082089       4.05186400      24.58417379        2      -0.00024417      -0.00743595       0.01023293
Pt       7.01803504       4.05186405      24.58417405        2       0.00600735      -0.00403884       0.00645292
Pt       2.80721281       6.48298343      24.58417366        2      -0.00629695       0.00391561       0.01024747
Pt       5.61442797       6.48298326      24.58417386        2       0.00655931       0.00349399       0.01026225
Pt       8.42164223       6.48298340      24.58417377        2       0.00006821       0.00303814       0.01551092
Pt       0.00122941       0.00271579      26.90916193        1      -0.00485342      -0.02161539       0.02690955
Pt       2.80913668       0.00052632      26.91496820        1      -0.01133177      -0.00476562       0.00725643
Pt       5.61300365       0.00139447      26.91496858        1       0.00976253      -0.00744926       0.00729063
Pt       1.40490299       2.43069174      26.91141743        1      -0.00563931       0.00241484       0.02081506
Pt       4.21031672       2.42918315      26.91497471        1       0.00154268       0.01220601       0.00724328
Pt       7.01701742       2.43019879      26.91141812        1       0.00493702       0.00367658       0.02079895
Pt       2.80423791       4.86193499      26.90916414        1       0.02113207       0.00660194       0.02696485
Pt       5.61617045       4.85980436      26.90916575        1      -0.01625709       0.01502870       0.02691600
Pt       8.42135511       4.86356833      26.91141570        1       0.00072209      -0.00609572       0.02086864
C        4.21083834       5.67267247      32.22493093        0       0.00006928       0.00035333       0.00552007
O        4.21085126       5.67276239      33.40612926        0      -0.00003429      -0.00017642       0.00460024
O        4.21083626       5.67263836      31.04452058        0      -0.00003471      -0.00017680      -0.00744264
