39
Lattice="8.421641763931781 0.0 0.0 4.2108208819658905 7.293355709136913 0.0 0.0 0.0 46.87624170604845" Properties=species:S:1:pos:R:3:tags:I:1:forces:R:3 charge=0 spin=0 energy=-209.36783789729077 free_energy=-209.36783789729077 stress="0.010427605360746384 -9.80694636609769e-09 1.1570732816323925e-08 -9.80694636609769e-09 0.010427592322230339 -6.413834352514414e-09 1.1570732816323925e-08 -6.413834352514414e-09 -0.00017977670358959585" pbc="T T T"
Pt      -0.00000001       0.00000022      19.95723425        4      -0.00012852       0.00001291       0.01511872
Pt       2.80721397      -0.00000009      19.95723437        4      -0.00038579      -0.00013402       0.01542144
Pt       5.61442779      -0.00000006      19.95723442        4       0.00030995      -0.00026093       0.01541249
Pt       1.40360720       2.43111836      19.95723428        4       0.00046600      -0.00035166       0.01529620
Pt       4.21082081       2.43111834      19.95723435        4       0.00007475       0.00039924       0.01542455
Pt       7.01803481       2.43111842      19.95723424        4      -0.00053931      -0.00022781       0.01529750
Pt       2.80721405       4.86223723      19.95723396        4       0.00005484      -0.00012478       0.01512335
Pt       5.61442805       4.86223729      19.95723414        4       0.00007675       0.00010394       0.01512466
Pt       8.42164141       4.86223719      19.95723428        4       0.00007390       0.00058117       0.01529794
Pt       1.40360726       0.81037260      22.29206791        3      -0.00062139      -0.00026216      -0.04364563
Pt       4.21082130       0.81037249      22.29206785        3      -0.00000337       0.00000721      -0.04625771
Pt       7.01803472       0.81037257      22.29206783        3       0.00073587      -0.00051751      -0.04379913
Pt       2.80721450       3.24149124      22.29206777        3       0.00007983       0.00089458      -0.04380893
Pt       5.61442762       3.24149124      22.29206789        3       0.00008417       0.00066746      -0.04364872
Pt       8.42164156       3.24149128      22.29206809        3       0.00000497      -0.00000395      -0.04458637
Pt       4.21082092       5.67260996      22.29206799        3      -0.00000037       0.00000328      -0.04814393
Pt       7.01803487       5.67261037      22.29206782        3      -0.00082224      -0.00038276      -0.04379821
Pt       9.82524820       5.67261064      22.29206809        3       0.00054874      -0.00042063      -0.04363100
Pt      -0.00000052       1.62074570      24.58417379        2       0.00043650      -0.00858556       0.01208658
Pt       2.80721442       1.62074548      24.58417394        2       0.00298423      -0.00188328       0.02919660
Pt       5.61442780       1.62074537      24.58417373        2      -0.00310798      -0.00167482       0.02920913
Pt       1.40360637       4.05186438      24.58417386        2       0.00720328       0.00467684       0.01204312
Pt       4.21082089       4.05186400      24.58417379        2       0.00044821      -0.00823817       0.02129622
Pt       7.01803504       4.05186405      24.58417405        2      -0.00764540       0.00392576       0.01208046
Pt       2.80721281       6.48298343      24.58417366        2      -0.00737305       0.00373653       0.02135286
Pt       5.61442797       6.48298326      24.58417386        2       0.00693247       0.00452560       0.02137304
Pt       8.42164223       6.48298340      24.58417377        2       0.00011386       0.00351746       0.02925594
Pt       0.00022231      -0.00418115      26.91513460        1      -0.00058302       0.02540973       0.00348913
Pt       2.80861354       0.00049881      26.91681822        1      -0.00442890      -0.00150179      -0.00612613
Pt       5.61328817       0.00095020      26.91682289        1       0.00355099      -0.00300615      -0.00617556
Pt       1.39973634       2.43329514      26.91019380        1       0.03381593      -0.01955695       0.02485131
Pt       4.21055466       2.42967482      26.91680543        1       0.00089658       0.00452934      -0.00611364
Pt       7.02184300       2.43340038      26.91020051        1      -0.03376100      -0.01965613       0.02478123
Pt       2.81071402       4.86452134      26.91513388        1      -0.02169237      -0.01317446       0.00352535
Pt       5.61069704       4.86413597      26.91513590        1       0.02230060      -0.01213640       0.00350497
Pt       8.42170410       4.85779390      26.91020852        1      -0.00009934       0.03910923       0.02482932
C        4.21082657       5.67260392      32.16529954        0       0.00000356      -0.00000850       0.01182631
O        4.21081892       5.67260868      33.34651507        0      -0.00000206       0.00000359       0.00233392
O        4.21083442       5.67259836      30.98487045        0      -0.00000201       0.00000437      -0.00481746
