39
Lattice="8.421641763931781 0.0 0.0 4.2108208819658905 7.293355709136913 0.0 0.0 0.0 46.87624170604845" Properties=species:S:1:pos:R:3:tags:I:1:forces:R:3 charge=0 spin=0 energy=-209.36741637324292 free_energy=-209.36741637324292 stress="0.01053130067884922 -4.771615547127794e-09 4.3623013534777044e-10 -4.771615547127794e-09 0.010531304404139519 7.169238536164357e-09 4.3623013534777044e-10 7.169238536164357e-09 2.6618425181368366e-05" pbc="T T T"
Pt      -0.00000001       0.00000022      19.95723425        4      -0.00006392      -0.00034057       0.01517044
Pt       2.80721397      -0.00000009      19.95723437        4       0.00002342      -0.00001378       0.01532504
Pt       5.61442779      -0.00000006      19.95723442        4       0.00000086       0.00003364       0.01531754
Pt       1.40360720       2.43111836      19.95723428        4      -0.00045233       0.00011946       0.01533673
Pt       4.21082081       2.43111834      19.95723435        4      -0.00002469      -0.00001430       0.01533043
Pt       7.01803481       2.43111842      19.95723424        4       0.00032769       0.00033036       0.01533575
Pt       2.80721405       4.86223723      19.95723396        4       0.00032579       0.00010750       0.01516964
Pt       5.61442805       4.86223729      19.95723414        4      -0.00025965       0.00022336       0.01516720
Pt       8.42164141       4.86223719      19.95723428        4       0.00012389      -0.00044926       0.01532913
Pt       1.40360726       0.81037260      22.29206791        3       0.00035180       0.00039110      -0.04640590
Pt       4.21082130       0.81037249      22.29206785        3      -0.00000260       0.00000442      -0.04853179
Pt       7.01803472       0.81037257      22.29206783        3      -0.00049553      -0.00010716      -0.04641733
Pt       2.80721450       3.24149124      22.29206777        3       0.00034133      -0.00037545      -0.04643000
Pt       5.61442762       3.24149124      22.29206789        3       0.00016252      -0.00049923      -0.04641288
Pt       8.42164156       3.24149128      22.29206809        3       0.00000366      -0.00000092      -0.03999715
Pt       4.21082092       5.67260996      22.29206799        3      -0.00000242       0.00000161      -0.04141509
Pt       7.01803487       5.67261037      22.29206782        3       0.00014673       0.00047823      -0.04643629
Pt       9.82524820       5.67261064      22.29206809        3      -0.00050579       0.00009402      -0.04641334
Pt      -0.00000052       1.62074570      24.58417379        2       0.00026070       0.00630457       0.06050449
Pt       2.80721442       1.62074548      24.58417394        2      -0.00813627       0.00407241       0.03665546
Pt       5.61442780       1.62074537      24.58417373        2       0.00756962       0.00503618       0.03661798
Pt       1.40360637       4.05186438      24.58417386        2      -0.00557615      -0.00292712       0.06058407
Pt       4.21082089       4.05186400      24.58417379        2       0.00017536       0.01346594       0.04237249
Pt       7.01803504       4.05186405      24.58417405        2       0.00532890      -0.00334601       0.06055794
Pt       2.80721281       6.48298343      24.58417366        2       0.01157239      -0.00689971       0.04236502
Pt       5.61442797       6.48298326      24.58417386        2      -0.01174349      -0.00657143       0.04237507
Pt       8.42164223       6.48298340      24.58417377        2       0.00054343      -0.00908602       0.03669675
Pt       0.00028927       0.00336560      26.92235483        1      -0.00095513      -0.02340858      -0.02662450
Pt       2.80444876      -0.00220855      26.91246926        1       0.01441134       0.01101498       0.01315976
Pt       5.61772577      -0.00127109      26.91246520        1      -0.01676077       0.00691131       0.01318342
Pt       1.40507775       2.43012986      26.92333248        1      -0.01586688       0.00936557      -0.03336218
Pt       4.21028323       2.43461606      26.91247173        1       0.00232026      -0.01793753       0.01314846
Pt       7.01643652       2.43033831      26.92332592        1       0.01605504       0.00911731      -0.03335504
Pt       2.80416347       4.86082282      26.92235843        1       0.02067489       0.01080574      -0.02662980
Pt       5.61718845       4.86030881      26.92235742        1      -0.01973275       0.01254031      -0.02665864
Pt       8.42176155       4.86402485      26.92333708        1      -0.00013997      -0.01844200      -0.03340294
C        4.21082203       5.67259711      32.38240445        0      -0.00000154      -0.00000189      -0.02485549
O        4.21082222       5.67261813      33.56351670        0       0.00000009       0.00000171       0.01245001
O        4.21082194       5.67257555      31.20189899        0       0.00000011       0.00000110       0.00519558
