39
Lattice="8.421641763931781 0.0 0.0 4.2108208819658905 7.293355709136913 0.0 0.0 0.0 46.87624170604845" Properties=species:S:1:pos:R:3:tags:I:1:forces:R:3 charge=0 spin=0 energy=-209.36741923426587 free_energy=-209.36741923426587 stress="0.010531265288591385 -4.108515749834396e-09 -8.588232347506164e-10 -4.108515749834396e-09 0.010531259700655937 8.864075695669271e-09 -8.588232347506164e-10 8.864075695669271e-09 2.6389132472104393e-05" pbc="T T T"
Pt      -0.00000001       0.00000022      19.95723425        4      -0.00006383      -0.00034059       0.01517017
Pt       2.80721397      -0.00000009      19.95723437        4       0.00002360      -0.00001352       0.01532498
Pt       5.61442779      -0.00000006      19.95723442        4       0.00000065       0.00003371       0.01531741
Pt       1.40360720       2.43111836      19.95723428        4      -0.00045186       0.00011933       0.01533660
Pt       4.21082081       2.43111834      19.95723435        4      -0.00002466      -0.00001441       0.01533024
Pt       7.01803481       2.43111842      19.95723424        4       0.00032753       0.00033007       0.01533552
Pt       2.80721405       4.86223723      19.95723396        4       0.00032605       0.00010746       0.01516942
Pt       5.61442805       4.86223729      19.95723414        4      -0.00025969       0.00022319       0.01516686
Pt       8.42164141       4.86223719      19.95723428        4       0.00012384      -0.00044917       0.01532903
Pt       1.40360726       0.81037260      22.29206791        3       0.00035161       0.00039114      -0.04640628
Pt       4.21082130       0.81037249      22.29206785        3      -0.00000269       0.00000457      -0.04852902
Pt       7.01803472       0.81037257      22.29206783        3      -0.00049548      -0.00010689      -0.04641775
Pt       2.80721450       3.24149124      22.29206777        3       0.00034066      -0.00037529      -0.04643049
Pt       5.61442762       3.24149124      22.29206789        3       0.00016295      -0.00049895      -0.04641258
Pt       8.42164156       3.24149128      22.29206809        3       0.00000376      -0.00000092      -0.03999971
Pt       4.21082092       5.67260996      22.29206799        3      -0.00000234       0.00000208      -0.04141497
Pt       7.01803487       5.67261037      22.29206782        3       0.00014665       0.00047752      -0.04643576
Pt       9.82524820       5.67261064      22.29206809        3      -0.00050570       0.00009395      -0.04641334
Pt      -0.00000052       1.62074570      24.58417379        2       0.00026079       0.00630141       0.06048989
Pt       2.80721442       1.62074548      24.58417394        2      -0.00812951       0.00406903       0.03664493
Pt       5.61442780       1.62074537      24.58417373        2       0.00756300       0.00503428       0.03660475
Pt       1.40360637       4.05186438      24.58417386        2      -0.00557160      -0.00292490       0.06057105
Pt       4.21082089       4.05186400      24.58417379        2       0.00017581       0.01346551       0.04236842
Pt       7.01803504       4.05186405      24.58417405        2       0.00532368      -0.00334332       0.06054512
Pt       2.80721281       6.48298343      24.58417366        2       0.01157310      -0.00690132       0.04235535
Pt       5.61442797       6.48298326      24.58417386        2      -0.01174232      -0.00657261       0.04236834
Pt       8.42164223       6.48298340      24.58417377        2       0.00054169      -0.00907913       0.03668472
Pt       0.00028913       0.00336436      26.92235323        1      -0.00095369      -0.02340316      -0.02661564
Pt       2.80444776      -0.00220887      26.91246934        1       0.01441750       0.01101714       0.01316095
Pt       5.61772636      -0.00127142      26.91246494        1      -0.01676759       0.00691424       0.01319428
Pt       1.40507957       2.43012876      26.92332742        1      -0.01587695       0.00937179      -0.03333901
Pt       4.21028343       2.43461681      26.91247186        1       0.00231933      -0.01794157       0.01315015
Pt       7.01643456       2.43033750      26.92332103        1       0.01606616       0.00912406      -0.03333229
Pt       2.80416442       4.86082335      26.92235699        1       0.02067031       0.01080176      -0.02662741
Pt       5.61718734       4.86030923      26.92235669        1      -0.01972998       0.01253789      -0.02665239
Pt       8.42176168       4.86402660      26.92333241        1      -0.00014051      -0.01845448      -0.03337932
C        4.21082230       5.67259734      32.38244692        0       0.00000295      -0.00000525      -0.02452718
O        4.21082279       5.67261842      33.56356225        0      -0.00000156       0.00000291       0.01247316
O        4.21082200       5.67257561      31.20194371        0      -0.00000161       0.00000237       0.00484146
