39
Lattice="8.421641763931781 0.0 0.0 4.2108208819658905 7.293355709136913 0.0 0.0 0.0 46.87624170604845" Properties=species:S:1:pos:R:3:tags:I:1:forces:R:3 charge=0 spin=0 energy=-209.3674154195686 free_energy=-209.3674154195686 stress="0.01053127832710743 -5.832748506406915e-09 -1.805837257506937e-09 -5.832748506406915e-09 0.01053127832710743 7.933182999408928e-09 -1.805837257506937e-09 7.933182999408928e-09 2.6407662517158315e-05" pbc="T T T"
Pt      -0.00000001       0.00000022      19.95723425        4      -0.00006393      -0.00034057       0.01517014
Pt       2.80721397      -0.00000009      19.95723437        4       0.00002346      -0.00001357       0.01532498
Pt       5.61442779      -0.00000006      19.95723442        4       0.00000076       0.00003360       0.01531760
Pt       1.40360720       2.43111836      19.95723428        4      -0.00045197       0.00011932       0.01533668
Pt       4.21082081       2.43111834      19.95723435        4      -0.00002467      -0.00001451       0.01533039
Pt       7.01803481       2.43111842      19.95723424        4       0.00032774       0.00032999       0.01533552
Pt       2.80721405       4.86223723      19.95723396        4       0.00032603       0.00010745       0.01516942
Pt       5.61442805       4.86223729      19.95723414        4      -0.00025980       0.00022317       0.01516705
Pt       8.42164141       4.86223719      19.95723428        4       0.00012403      -0.00044928       0.01532890
Pt       1.40360726       0.81037260      22.29206791        3       0.00035170       0.00039115      -0.04640611
Pt       4.21082130       0.81037249      22.29206785        3      -0.00000236       0.00000500      -0.04853091
Pt       7.01803472       0.81037257      22.29206783        3      -0.00049574      -0.00010692      -0.04641796
Pt       2.80721450       3.24149124      22.29206777        3       0.00034074      -0.00037499      -0.04642976
Pt       5.61442762       3.24149124      22.29206789        3       0.00016263      -0.00049910      -0.04641226
Pt       8.42164156       3.24149128      22.29206809        3       0.00000361      -0.00000087      -0.03999791
Pt       4.21082092       5.67260996      22.29206799        3      -0.00000264       0.00000206      -0.04141539
Pt       7.01803487       5.67261037      22.29206782        3       0.00014657       0.00047830      -0.04643630
Pt       9.82524820       5.67261064      22.29206809        3      -0.00050582       0.00009423      -0.04641337
Pt      -0.00000052       1.62074570      24.58417379        2       0.00026255       0.00630685       0.06050227
Pt       2.80721442       1.62074548      24.58417394        2      -0.00813539       0.00407203       0.03665366
Pt       5.61442780       1.62074537      24.58417373        2       0.00756671       0.00503648       0.03661037
Pt       1.40360637       4.05186438      24.58417386        2      -0.00557643      -0.00292988       0.06058195
Pt       4.21082089       4.05186400      24.58417379        2       0.00017547       0.01346355       0.04236423
Pt       7.01803504       4.05186405      24.58417405        2       0.00532973      -0.00334673       0.06055312
Pt       2.80721281       6.48298343      24.58417366        2       0.01157284      -0.00689970       0.04235387
Pt       5.61442797       6.48298326      24.58417386        2      -0.01174215      -0.00657032       0.04236713
Pt       8.42164223       6.48298340      24.58417377        2       0.00054234      -0.00908359       0.03669063
Pt       0.00028910       0.00336440      26.92235313        1      -0.00095285      -0.02339786      -0.02661719
Pt       2.80444824      -0.00220880      26.91246902        1       0.01441536       0.01101937       0.01316110
Pt       5.61772619      -0.00127125      26.91246485        1      -0.01676804       0.00691217       0.01319375
Pt       1.40507937       2.43012896      26.92333133        1      -0.01587847       0.00937096      -0.03336405
Pt       4.21028341       2.43461658      26.91247186        1       0.00231791      -0.01794237       0.01315052
Pt       7.01643483       2.43033754      26.92332532        1       0.01606971       0.00912503      -0.03334874
Pt       2.80416406       4.86082333      26.92235650        1       0.02066589       0.01079976      -0.02662340
Pt       5.61718763       4.86030913      26.92235605        1      -0.01972538       0.01253611      -0.02664868
Pt       8.42176190       4.86402664      26.92333557        1      -0.00013948      -0.01845714      -0.03339641
C        4.21082208       5.67259726      32.38240673        0      -0.00000019      -0.00000762      -0.02518276
O        4.21082222       5.67261877      33.56351904        0      -0.00000014       0.00000456       0.01280633
O        4.21082200       5.67257437      31.20190292        0      -0.00000017       0.00000394       0.00517157
