39
Lattice="8.421641763931781 0.0 0.0 4.2108208819658905 7.293355709136913 0.0 0.0 0.0 46.87624170604845" Properties=species:S:1:pos:R:3:tags:I:1:forces:R:3 charge=0 spin=0 energy=-209.3678398046394 free_energy=-209.3678398046394 stress="0.01042760070413351 -3.900408884760509e-09 1.0660367699699691e-08 -3.900408884760509e-09 0.01042757835239172 -1.2377782132588777e-09 1.0660367699699691e-08 -1.2377782132588777e-09 -0.00017996691167354584" pbc="T T T"
Pt      -0.00000001       0.00000022      19.95723425        4      -0.00012837       0.00001298       0.01511891
Pt       2.80721397      -0.00000009      19.95723437        4      -0.00038564      -0.00013439       0.01542148
Pt       5.61442779      -0.00000006      19.95723442        4       0.00031023      -0.00026106       0.01541264
Pt       1.40360720       2.43111836      19.95723428        4       0.00046588      -0.00035179       0.01529608
Pt       4.21082081       2.43111834      19.95723435        4       0.00007508       0.00039957       0.01542470
Pt       7.01803481       2.43111842      19.95723424        4      -0.00053965      -0.00022790       0.01529718
Pt       2.80721405       4.86223723      19.95723396        4       0.00005496      -0.00012520       0.01512333
Pt       5.61442805       4.86223729      19.95723414        4       0.00007662       0.00010386       0.01512388
Pt       8.42164141       4.86223719      19.95723428        4       0.00007413       0.00058147       0.01529724
Pt       1.40360726       0.81037260      22.29206791        3      -0.00061994      -0.00026284      -0.04364425
Pt       4.21082130       0.81037249      22.29206785        3      -0.00000408       0.00000568      -0.04625853
Pt       7.01803472       0.81037257      22.29206783        3       0.00073655      -0.00051737      -0.04379915
Pt       2.80721450       3.24149124      22.29206777        3       0.00008056       0.00089281      -0.04380777
Pt       5.61442762       3.24149124      22.29206789        3       0.00008449       0.00066817      -0.04364795
Pt       8.42164156       3.24149128      22.29206809        3       0.00000577      -0.00000416      -0.04458791
Pt       4.21082092       5.67260996      22.29206799        3       0.00000050       0.00000280      -0.04814655
Pt       7.01803487       5.67261037      22.29206782        3      -0.00082096      -0.00038343      -0.04379748
Pt       9.82524820       5.67261064      22.29206809        3       0.00054864      -0.00042212      -0.04363082
Pt      -0.00000052       1.62074570      24.58417379        2       0.00043991      -0.00858915       0.01207636
Pt       2.80721442       1.62074548      24.58417394        2       0.00298688      -0.00188649       0.02919934
Pt       5.61442780       1.62074537      24.58417373        2      -0.00311231      -0.00167452       0.02921605
Pt       1.40360637       4.05186438      24.58417386        2       0.00720033       0.00468042       0.01203590
Pt       4.21082089       4.05186400      24.58417379        2       0.00044884      -0.00824521       0.02128815
Pt       7.01803504       4.05186405      24.58417405        2      -0.00764873       0.00392113       0.01207144
Pt       2.80721281       6.48298343      24.58417366        2      -0.00738353       0.00373707       0.02134963
Pt       5.61442797       6.48298326      24.58417386        2       0.00693714       0.00452884       0.02136617
Pt       8.42164223       6.48298340      24.58417377        2       0.00011438       0.00351613       0.02926527
Pt       0.00022229      -0.00418363      26.91513323        1      -0.00058583       0.02543206       0.00349838
Pt       2.80861451       0.00049937      26.91681903        1      -0.00442952      -0.00150025      -0.00616835
Pt       5.61328764       0.00095068      26.91682401        1       0.00355546      -0.00300975      -0.00618677
Pt       1.39973339       2.43329704      26.91019255        1       0.03383884      -0.01957308       0.02486509
Pt       4.21055454       2.42967410      26.91680693        1       0.00090448       0.00452889      -0.00612153
Pt       7.02184618       2.43340224      26.91019970        1      -0.03379613      -0.01966978       0.02482321
Pt       2.81071610       4.86452244      26.91513343        1      -0.02171068      -0.01317702       0.00353574
Pt       5.61069501       4.86413730      26.91513406        1       0.02232105      -0.01214638       0.00351426
Pt       8.42170383       4.85779004      26.91020706        1      -0.00009593       0.03915072       0.02483078
C        4.21082657       5.67260389      32.16526012        0       0.00000266      -0.00000892       0.01216594
O        4.21081907       5.67260865      33.34647818        0      -0.00000144       0.00000377       0.00235682
O        4.21083385       5.67259844      30.98483594        0      -0.00000052       0.00000458      -0.00517675
