39
Lattice="8.421641763931781 0.0 0.0 4.2108208819658905 7.293355709136913 0.0 0.0 0.0 46.87624170604845" Properties=species:S:1:pos:R:3:tags:I:1:forces:R:3 charge=0 spin=0 energy=-209.36783598994214 free_energy=-209.36783598994214 stress="0.010427584871649742 -1.540923499909752e-09 1.2830547291287075e-08 -1.540923499909752e-09 0.010427568107843399 -2.6366389072052243e-09 1.2830547291287075e-08 -2.6366389072052243e-09 -0.00018021561845671386" pbc="T T T"
Pt      -0.00000001       0.00000022      19.95723425        4      -0.00012864       0.00001311       0.01511917
Pt       2.80721397      -0.00000009      19.95723437        4      -0.00038552      -0.00013434       0.01542142
Pt       5.61442779      -0.00000006      19.95723442        4       0.00030998      -0.00026091       0.01541285
Pt       1.40360720       2.43111836      19.95723428        4       0.00046566      -0.00035171       0.01529606
Pt       4.21082081       2.43111834      19.95723435        4       0.00007499       0.00039931       0.01542449
Pt       7.01803481       2.43111842      19.95723424        4      -0.00053933      -0.00022795       0.01529714
Pt       2.80721405       4.86223723      19.95723396        4       0.00005492      -0.00012502       0.01512345
Pt       5.61442805       4.86223729      19.95723414        4       0.00007635       0.00010407       0.01512396
Pt       8.42164141       4.86223719      19.95723428        4       0.00007421       0.00058156       0.01529722
Pt       1.40360726       0.81037260      22.29206791        3      -0.00061987      -0.00026335      -0.04364451
Pt       4.21082130       0.81037249      22.29206785        3      -0.00000349       0.00000558      -0.04625789
Pt       7.01803472       0.81037257      22.29206783        3       0.00073642      -0.00051787      -0.04379822
Pt       2.80721450       3.24149124      22.29206777        3       0.00008073       0.00089287      -0.04380926
Pt       5.61442762       3.24149124      22.29206789        3       0.00008450       0.00066792      -0.04364911
Pt       8.42164156       3.24149128      22.29206809        3       0.00000605      -0.00000446      -0.04458552
Pt       4.21082092       5.67260996      22.29206799        3       0.00000042       0.00000250      -0.04814582
Pt       7.01803487       5.67261037      22.29206782        3      -0.00082078      -0.00038353      -0.04379804
Pt       9.82524820       5.67261064      22.29206809        3       0.00054893      -0.00042177      -0.04363118
Pt      -0.00000052       1.62074570      24.58417379        2       0.00043933      -0.00858476       0.01207412
Pt       2.80721442       1.62074548      24.58417394        2       0.00298648      -0.00188838       0.02919418
Pt       5.61442780       1.62074537      24.58417373        2      -0.00311105      -0.00167610       0.02921132
Pt       1.40360637       4.05186438      24.58417386        2       0.00719605       0.00467796       0.01203334
Pt       4.21082089       4.05186400      24.58417379        2       0.00044890      -0.00824317       0.02128538
Pt       7.01803504       4.05186405      24.58417405        2      -0.00764513       0.00391939       0.01206921
Pt       2.80721281       6.48298343      24.58417366        2      -0.00738286       0.00373724       0.02134585
Pt       5.61442797       6.48298326      24.58417386        2       0.00693653       0.00452879       0.02136265
Pt       8.42164223       6.48298340      24.58417377        2       0.00011388       0.00351773       0.02926247
Pt       0.00022239      -0.00418096      26.91513059        1      -0.00058672       0.02541369       0.00350644
Pt       2.80861384       0.00049917      26.91681806        1      -0.00442597      -0.00150153      -0.00616750
Pt       5.61328776       0.00094995      26.91682383        1       0.00355364      -0.00300589      -0.00618569
Pt       1.39973457       2.43329605      26.91019309        1       0.03382473      -0.01956426       0.02486645
Pt       4.21055465       2.42967338      26.91680517        1       0.00090507       0.00453301      -0.00611332
Pt       7.02184470       2.43340159      26.91020061        1      -0.03378401      -0.01966467       0.02482249
Pt       2.81071365       4.86452139      26.91513111        1      -0.02169283      -0.01317031       0.00354136
Pt       5.61069716       4.86413616      26.91513224        1       0.02230460      -0.01213942       0.00352141
Pt       8.42170430       4.85779206      26.91020799        1      -0.00009641       0.03913505       0.02483186
C        4.21082663       5.67260396      32.16528953        0       0.00000367      -0.00000905       0.01065730
O        4.21081900       5.67260797      33.34649815        0      -0.00000202       0.00000390       0.00339329
O        4.21083443       5.67259912      30.98486199        0      -0.00000150       0.00000482      -0.00470855
