39
Lattice="8.421641763931781 0.0 0.0 4.2108208819658905 7.293355709136913 0.0 0.0 0.0 46.87624170604845" Properties=species:S:1:pos:R:3:tags:I:1:forces:R:3 charge=0 spin=0 energy=-209.3678331289192 free_energy=-209.3678331289192 stress="0.010427537374198437 -2.586492797718165e-09 1.4302243833697048e-08 -2.586492797718165e-09 0.010427511297166348 -1.987654707491515e-09 1.4302243833697048e-08 -1.987654707491515e-09 -0.00018029574130196124" pbc="T T T"
Pt      -0.00000001       0.00000022      19.95723425        4      -0.00012878       0.00001338       0.01511902
Pt       2.80721397      -0.00000009      19.95723437        4      -0.00038615      -0.00013468       0.01542144
Pt       5.61442779      -0.00000006      19.95723442        4       0.00031060      -0.00026125       0.01541251
Pt       1.40360720       2.43111836      19.95723428        4       0.00046624      -0.00035203       0.01529591
Pt       4.21082081       2.43111834      19.95723435        4       0.00007501       0.00040006       0.01542453
Pt       7.01803481       2.43111842      19.95723424        4      -0.00053989      -0.00022802       0.01529699
Pt       2.80721405       4.86223723      19.95723396        4       0.00005478      -0.00012519       0.01512339
Pt       5.61442805       4.86223729      19.95723414        4       0.00007684       0.00010358       0.01512405
Pt       8.42164141       4.86223719      19.95723428        4       0.00007416       0.00058206       0.01529716
Pt       1.40360726       0.81037260      22.29206791        3      -0.00062024      -0.00026287      -0.04364273
Pt       4.21082130       0.81037249      22.29206785        3      -0.00000344       0.00000548      -0.04625982
Pt       7.01803472       0.81037257      22.29206783        3       0.00073705      -0.00051783      -0.04379774
Pt       2.80721450       3.24149124      22.29206777        3       0.00008062       0.00089285      -0.04380741
Pt       5.61442762       3.24149124      22.29206789        3       0.00008495       0.00066857      -0.04364650
Pt       8.42164156       3.24149128      22.29206809        3       0.00000596      -0.00000407      -0.04459015
Pt       4.21082092       5.67260996      22.29206799        3       0.00000056       0.00000233      -0.04814935
Pt       7.01803487       5.67261037      22.29206782        3      -0.00082059      -0.00038362      -0.04379581
Pt       9.82524820       5.67261064      22.29206809        3       0.00054862      -0.00042218      -0.04363007
Pt      -0.00000052       1.62074570      24.58417379        2       0.00043963      -0.00859976       0.01204732
Pt       2.80721442       1.62074548      24.58417394        2       0.00298863      -0.00188958       0.02919784
Pt       5.61442780       1.62074537      24.58417373        2      -0.00311399      -0.00167581       0.02921192
Pt       1.40360637       4.05186438      24.58417386        2       0.00721075       0.00468419       0.01200255
Pt       4.21082089       4.05186400      24.58417379        2       0.00044765      -0.00825435       0.02127645
Pt       7.01803504       4.05186405      24.58417405        2      -0.00765793       0.00392493       0.01203759
Pt       2.80721281       6.48298343      24.58417366        2      -0.00739086       0.00374131       0.02133986
Pt       5.61442797       6.48298326      24.58417386        2       0.00694497       0.00453631       0.02135569
Pt       8.42164223       6.48298340      24.58417377        2       0.00011234       0.00352133       0.02926089
Pt       0.00022246      -0.00418583      26.91512843        1      -0.00058696       0.02544266       0.00351759
Pt       2.80861652       0.00050065      26.91682067        1      -0.00444089      -0.00150620      -0.00618158
Pt       5.61328431       0.00095220      26.91682424        1       0.00357247      -0.00301605      -0.00619218
Pt       1.39972715       2.43330059      26.91018688        1       0.03389076      -0.01960414       0.02489760
Pt       4.21055446       2.42967107      26.91680702        1       0.00090280       0.00454369      -0.00612583
Pt       7.02185228       2.43340584      26.91019397        1      -0.03384957      -0.01970501       0.02485377
Pt       2.81071794       4.86452331      26.91512792        1      -0.02171775      -0.01317926       0.00355317
Pt       5.61069294       4.86413827      26.91512934        1       0.02232808      -0.01215006       0.00354206
Pt       8.42170412       4.85778311      26.91020098        1      -0.00009596       0.03920958       0.02487207
C        4.21082686       5.67260407      32.16533988        0       0.00000033      -0.00001146       0.01132218
O        4.21081916       5.67260820      33.34654945        0      -0.00000054       0.00000507       0.00305572
O        4.21083462       5.67259859      30.98491561        0      -0.00000032       0.00000610      -0.00503977
