39
Lattice="8.421641763931781 0.0 0.0 4.2108208819658905 7.293355709136913 0.0 0.0 0.0 46.87624170604845" Properties=species:S:1:pos:R:3:tags:I:1:forces:R:3 charge=0 spin=0 energy=-209.3674154195686 free_energy=-209.3674154195686 stress="0.010531292296946049 -3.42309181000644e-09 -4.503041495240723e-09 -3.42309181000644e-09 0.010531296022236347 9.621058616460232e-09 -4.503041495240723e-09 9.621058616460232e-09 2.6419393179821782e-05" pbc="T T T"
Pt      -0.00000001       0.00000022      19.95723425        4      -0.00006380      -0.00034036       0.01517046
Pt       2.80721397      -0.00000009      19.95723437        4       0.00002345      -0.00001378       0.01532519
Pt       5.61442779      -0.00000006      19.95723442        4       0.00000082       0.00003373       0.01531756
Pt       1.40360720       2.43111836      19.95723428        4      -0.00045223       0.00011945       0.01533681
Pt       4.21082081       2.43111834      19.95723435        4      -0.00002470      -0.00001443       0.01533020
Pt       7.01803481       2.43111842      19.95723424        4       0.00032759       0.00033018       0.01533567
Pt       2.80721405       4.86223723      19.95723396        4       0.00032601       0.00010743       0.01516968
Pt       5.61442805       4.86223729      19.95723414        4      -0.00025961       0.00022329       0.01516722
Pt       8.42164141       4.86223719      19.95723428        4       0.00012398      -0.00044932       0.01532897
Pt       1.40360726       0.81037260      22.29206791        3       0.00035180       0.00039054      -0.04640574
Pt       4.21082130       0.81037249      22.29206785        3      -0.00000231       0.00000449      -0.04853259
Pt       7.01803472       0.81037257      22.29206783        3      -0.00049594      -0.00010735      -0.04641810
Pt       2.80721450       3.24149124      22.29206777        3       0.00034097      -0.00037522      -0.04643019
Pt       5.61442762       3.24149124      22.29206789        3       0.00016275      -0.00049914      -0.04641246
Pt       8.42164156       3.24149128      22.29206809        3       0.00000371      -0.00000085      -0.03999449
Pt       4.21082092       5.67260996      22.29206799        3      -0.00000242       0.00000183      -0.04141485
Pt       7.01803487       5.67261037      22.29206782        3       0.00014681       0.00047821      -0.04643610
Pt       9.82524820       5.67261064      22.29206809        3      -0.00050563       0.00009453      -0.04641356
Pt      -0.00000052       1.62074570      24.58417379        2       0.00026241       0.00630930       0.06050352
Pt       2.80721442       1.62074548      24.58417394        2      -0.00813795       0.00407353       0.03665645
Pt       5.61442780       1.62074537      24.58417373        2       0.00756911       0.00503770       0.03661377
Pt       1.40360637       4.05186438      24.58417386        2      -0.00557729      -0.00293072       0.06058534
Pt       4.21082089       4.05186400      24.58417379        2       0.00017380       0.01346546       0.04237070
Pt       7.01803504       4.05186405      24.58417405        2       0.00533199      -0.00334767       0.06055458
Pt       2.80721281       6.48298343      24.58417366        2       0.01157334      -0.00690160       0.04236104
Pt       5.61442797       6.48298326      24.58417386        2      -0.01174345      -0.00657070       0.04237023
Pt       8.42164223       6.48298340      24.58417377        2       0.00054176      -0.00908642       0.03669238
Pt       0.00028924       0.00336677      26.92235292        1      -0.00095524      -0.02341381      -0.02662662
Pt       2.80444822      -0.00220875      26.91246949        1       0.01441325       0.01101835       0.01316099
Pt       5.61772540      -0.00127096      26.91246469        1      -0.01676174       0.00691037       0.01319284
Pt       1.40507818       2.43012961      26.92333424        1      -0.01586860       0.00936869      -0.03336865
Pt       4.21028326       2.43461616      26.91247205        1       0.00231763      -0.01793733       0.01314935
Pt       7.01643581       2.43033823      26.92332726        1       0.01606126       0.00912031      -0.03335400
Pt       2.80416209       4.86082197      26.92235701        1       0.02067870       0.01080619      -0.02663792
Pt       5.61718944       4.86030820      26.92235652        1      -0.01974167       0.01254335      -0.02664935
Pt       8.42176155       4.86402506      26.92333864        1      -0.00013914      -0.01844740      -0.03340182
C        4.21082248       5.67259733      32.38232862        0       0.00000031      -0.00000617      -0.02517084
O        4.21082287       5.67261930      33.56343734        0       0.00000025       0.00000297       0.01280658
O        4.21082206       5.67257440      31.20182184        0       0.00000017       0.00000247       0.00516784
