39
Lattice="8.421641763931781 0.0 0.0 4.2108208819658905 7.293355709136913 0.0 0.0 0.0 46.87624170604845" Properties=species:S:1:pos:R:3:tags:I:1:forces:R:3 charge=0 spin=0 energy=-209.36792563532788 free_energy=-209.36792563532788 stress="0.010428345762193203 -3.5966774003526325e-09 -1.1780811881578757e-08 -3.5966774003526325e-09 0.010428379289805889 1.2106994518035208e-07 -1.1780811881578757e-08 1.2106994518035208e-07 -0.00019098111079074442" pbc="T T T"
Pt      -0.00000001       0.00000022      19.95723425        4      -0.00007213      -0.00039281       0.01513206
Pt       2.80721397      -0.00000009      19.95723437        4      -0.00014239      -0.00000870       0.01537396
Pt       5.61442779      -0.00000006      19.95723442        4       0.00008045      -0.00010997       0.01536353
Pt       1.40360720       2.43111836      19.95723428        4       0.00036310      -0.00022536       0.01530045
Pt       4.21082081       2.43111834      19.95723435        4       0.00006044       0.00012406       0.01538064
Pt       7.01803481       2.43111842      19.95723424        4      -0.00037938      -0.00020278       0.01529932
Pt       2.80721405       4.86223723      19.95723396        4       0.00037844       0.00012644       0.01513868
Pt       5.61442805       4.86223729      19.95723414        4      -0.00030489       0.00025759       0.01513933
Pt       8.42164141       4.86223719      19.95723428        4       0.00001539       0.00043039       0.01529862
Pt       1.40360726       0.81037260      22.29206791        3      -0.00099894       0.00012999      -0.04460597
Pt       4.21082130       0.81037249      22.29206785        3      -0.00000432       0.00000825      -0.04279312
Pt       7.01803472       0.81037257      22.29206783        3       0.00106967       0.00007682      -0.04462920
Pt       2.80721450       3.24149124      22.29206777        3      -0.00060175       0.00089415      -0.04462806
Pt       5.61442762       3.24149124      22.29206789        3       0.00060561       0.00080173      -0.04459815
Pt       8.42164156       3.24149128      22.29206809        3       0.00000320       0.00000177      -0.04599779
Pt       4.21082092       5.67260996      22.29206799        3      -0.00000399       0.00000519      -0.04482475
Pt       7.01803487       5.67261037      22.29206782        3      -0.00048127      -0.00096661      -0.04462413
Pt       9.82524820       5.67261064      22.29206809        3       0.00039808      -0.00093774      -0.04459174
Pt      -0.00000052       1.62074570      24.58417379        2       0.00051635      -0.01391358       0.01144275
Pt       2.80721442       1.62074548      24.58417394        2       0.00931745      -0.00534264       0.01951660
Pt       5.61442780       1.62074537      24.58417373        2      -0.00928384      -0.00539089       0.01950522
Pt       1.40360637       4.05186438      24.58417386        2       0.01179598       0.00741057       0.01146440
Pt       4.21082089       4.05186400      24.58417379        2       0.00035835       0.00120512       0.03141245
Pt       7.01803504       4.05186405      24.58417405        2      -0.01230373       0.00654075       0.01146503
Pt       2.80721281       6.48298343      24.58417366        2       0.00085095      -0.00091755       0.03144946
Pt       5.61442797       6.48298326      24.58417386        2      -0.00119997      -0.00028657       0.03146417
Pt       8.42164223       6.48298340      24.58417377        2      -0.00003631       0.01072173       0.01958011
Pt       0.00013450      -0.00242405      26.91972918        1      -0.00038277       0.00843180      -0.01636476
Pt       2.80635420      -0.00073484      26.91593410        1       0.00604097       0.00407984      -0.00062370
Pt       5.61549323      -0.00038213      26.91593512        1      -0.00654286       0.00318814      -0.00063935
Pt       1.40340779       2.43100463      26.90646413        1       0.00737444      -0.00356077       0.03990863
Pt       4.21061607       2.43223535      26.91593175        1       0.00050983      -0.00726416      -0.00061334
Pt       7.01803151       2.43135564      26.90646486        1      -0.00674770      -0.00466170       0.03990224
Pt       2.80924748       4.86356460      26.91973752        1      -0.00713561      -0.00455252      -0.01638327
Pt       5.61226232       4.86333466      26.91973926        1       0.00751639      -0.00387224      -0.01638424
Pt       8.42184490       4.86212173      26.90647626        1      -0.00063386       0.00817258       0.03985816
C        4.21081897       5.67260539      32.18265264        0      -0.00000265      -0.00000658       0.03597332
O        4.21082779       5.67261794      33.36385756        0       0.00000172       0.00000417       0.00591508
O        4.21080918       5.67259188      31.00253330        0       0.00000138       0.00000222      -0.03398277
