39
Lattice="8.421641763931781 0.0 0.0 4.2108208819658905 7.293355709136913 0.0 0.0 0.0 46.87624170604845" Properties=species:S:1:pos:R:3:tags:I:1:forces:R:3 charge=0 spin=0 energy=-209.36792563532788 free_energy=-209.36792563532788 stress="0.010428350418806076 2.70970557103567e-09 -9.388364752282996e-09 2.70970557103567e-09 0.010428391396999359 1.207410065262593e-07 -9.388364752282996e-09 1.207410065262593e-07 -0.000190804319572635" pbc="T T T"
Pt      -0.00000001       0.00000022      19.95723425        4      -0.00007221      -0.00039271       0.01513177
Pt       2.80721397      -0.00000009      19.95723437        4      -0.00014287      -0.00000892       0.01537413
Pt       5.61442779      -0.00000006      19.95723442        4       0.00008101      -0.00011020       0.01536327
Pt       1.40360720       2.43111836      19.95723428        4       0.00036329      -0.00022545       0.01530045
Pt       4.21082081       2.43111834      19.95723435        4       0.00006031       0.00012450       0.01538053
Pt       7.01803481       2.43111842      19.95723424        4      -0.00037982      -0.00020286       0.01529917
Pt       2.80721405       4.86223723      19.95723396        4       0.00037826       0.00012649       0.01513878
Pt       5.61442805       4.86223729      19.95723414        4      -0.00030451       0.00025748       0.01513925
Pt       8.42164141       4.86223719      19.95723428        4       0.00001516       0.00043075       0.01529871
Pt       1.40360726       0.81037260      22.29206791        3      -0.00099866       0.00013003      -0.04460442
Pt       4.21082130       0.81037249      22.29206785        3      -0.00000410       0.00000760      -0.04279656
Pt       7.01803472       0.81037257      22.29206783        3       0.00106979       0.00007641      -0.04462896
Pt       2.80721450       3.24149124      22.29206777        3      -0.00060163       0.00089387      -0.04462616
Pt       5.61442762       3.24149124      22.29206789        3       0.00060601       0.00080145      -0.04459732
Pt       8.42164156       3.24149128      22.29206809        3       0.00000359       0.00000199      -0.04599972
Pt       4.21082092       5.67260996      22.29206799        3      -0.00000397       0.00000503      -0.04482631
Pt       7.01803487       5.67261037      22.29206782        3      -0.00048038      -0.00096705      -0.04462386
Pt       9.82524820       5.67261064      22.29206809        3       0.00039776      -0.00093749      -0.04459155
Pt      -0.00000052       1.62074570      24.58417379        2       0.00051674      -0.01391564       0.01144683
Pt       2.80721442       1.62074548      24.58417394        2       0.00930990      -0.00533726       0.01952544
Pt       5.61442780       1.62074537      24.58417373        2      -0.00927861      -0.00538502       0.01950946
Pt       1.40360637       4.05186438      24.58417386        2       0.01180141       0.00740835       0.01146818
Pt       4.21082089       4.05186400      24.58417379        2       0.00035711       0.00119955       0.03141125
Pt       7.01803504       4.05186405      24.58417405        2      -0.01230688       0.00654030       0.01146697
Pt       2.80721281       6.48298343      24.58417366        2       0.00084933      -0.00091590       0.03144549
Pt       5.61442797       6.48298326      24.58417386        2      -0.00119667      -0.00028234       0.03145996
Pt       8.42164223       6.48298340      24.58417377        2      -0.00003860       0.01071764       0.01958283
Pt       0.00013456      -0.00242751      26.91972850        1      -0.00038553       0.00845618      -0.01635816
Pt       2.80635488      -0.00073305      26.91593368        1       0.00603702       0.00407173      -0.00062631
Pt       5.61549151      -0.00038033      26.91593395        1      -0.00653274       0.00318124      -0.00063367
Pt       1.40340301       2.43100668      26.90646656        1       0.00740882      -0.00357270       0.03989306
Pt       4.21061610       2.43223293      26.91593169        1       0.00050771      -0.00724815      -0.00061618
Pt       7.01803580       2.43135759      26.90646685        1      -0.00677700      -0.00467386       0.03989262
Pt       2.80925056       4.86356686      26.91973723        1      -0.00715824      -0.00456966      -0.01638312
Pt       5.61225943       4.86333673      26.91973780        1       0.00753798      -0.00388650      -0.01637277
Pt       8.42184511       4.86211795      26.90647686        1      -0.00063849       0.00820097       0.03985797
C        4.21081884       5.67260524      32.18272192        0      -0.00000660      -0.00000313       0.03629949
O        4.21082838       5.67261792      33.36392934        0       0.00000351       0.00000254       0.00555673
O        4.21080842       5.67259144      31.00260134        0       0.00000266       0.00000079      -0.03395724
