39
Lattice="8.421641763931781 0.0 0.0 4.2108208819658905 7.293355709136913 0.0 0.0 0.0 46.87624170604845" Properties=species:S:1:pos:R:3:tags:I:1:forces:R:3 charge=0 spin=0 energy=-209.36792468165356 free_energy=-209.36792468165356 stress="0.010428342968225479 -1.4020321570384908e-09 -1.3667563081298795e-08 -1.4020321570384908e-09 0.010428383015096188 1.2102549362680293e-07 -1.3667563081298795e-08 1.2102549362680293e-07 -0.00019075239833910018" pbc="T T T"
Pt      -0.00000001       0.00000022      19.95723425        4      -0.00007219      -0.00039293       0.01513174
Pt       2.80721397      -0.00000009      19.95723437        4      -0.00014246      -0.00000873       0.01537392
Pt       5.61442779      -0.00000006      19.95723442        4       0.00008056      -0.00011007       0.01536351
Pt       1.40360720       2.43111836      19.95723428        4       0.00036324      -0.00022541       0.01530032
Pt       4.21082081       2.43111834      19.95723435        4       0.00006050       0.00012402       0.01538060
Pt       7.01803481       2.43111842      19.95723424        4      -0.00037954      -0.00020282       0.01529915
Pt       2.80721405       4.86223723      19.95723396        4       0.00037856       0.00012658       0.01513870
Pt       5.61442805       4.86223729      19.95723414        4      -0.00030492       0.00025754       0.01513925
Pt       8.42164141       4.86223719      19.95723428        4       0.00001537       0.00043058       0.01529871
Pt       1.40360726       0.81037260      22.29206791        3      -0.00099907       0.00012983      -0.04460604
Pt       4.21082130       0.81037249      22.29206785        3      -0.00000399       0.00000806      -0.04279367
Pt       7.01803472       0.81037257      22.29206783        3       0.00106978       0.00007654      -0.04462963
Pt       2.80721450       3.24149124      22.29206777        3      -0.00060195       0.00089416      -0.04462739
Pt       5.61442762       3.24149124      22.29206789        3       0.00060572       0.00080124      -0.04459802
Pt       8.42164156       3.24149128      22.29206809        3       0.00000323       0.00000182      -0.04599909
Pt       4.21082092       5.67260996      22.29206799        3      -0.00000415       0.00000497      -0.04482461
Pt       7.01803487       5.67261037      22.29206782        3      -0.00048092      -0.00096706      -0.04462409
Pt       9.82524820       5.67261064      22.29206809        3       0.00039763      -0.00093790      -0.04459155
Pt      -0.00000052       1.62074570      24.58417379        2       0.00051532      -0.01391384       0.01144228
Pt       2.80721442       1.62074548      24.58417394        2       0.00931807      -0.00534210       0.01951693
Pt       5.61442780       1.62074537      24.58417373        2      -0.00928411      -0.00538778       0.01950444
Pt       1.40360637       4.05186438      24.58417386        2       0.01180055       0.00741083       0.01146451
Pt       4.21082089       4.05186400      24.58417379        2       0.00035775       0.00120596       0.03141630
Pt       7.01803504       4.05186405      24.58417405        2      -0.01230643       0.00653960       0.01146273
Pt       2.80721281       6.48298343      24.58417366        2       0.00085216      -0.00092000       0.03144944
Pt       5.61442797       6.48298326      24.58417386        2      -0.00120076      -0.00028634       0.03146266
Pt       8.42164223       6.48298340      24.58417377        2      -0.00003816       0.01072413       0.01957677
Pt       0.00013428      -0.00242416      26.91972908        1      -0.00038339       0.00843166      -0.01636242
Pt       2.80635277      -0.00073447      26.91593300        1       0.00604851       0.00407986      -0.00062470
Pt       5.61549322      -0.00038190      26.91593456        1      -0.00654390       0.00318904      -0.00063214
Pt       1.40340744       2.43100465      26.90646380        1       0.00737730      -0.00355972       0.03991036
Pt       4.21061621       2.43223561      26.91593155        1       0.00050969      -0.00726331      -0.00061552
Pt       7.01803234       2.43135579      26.90646575        1      -0.00675329      -0.00466094       0.03990029
Pt       2.80924778       4.86356500      26.91973803        1      -0.00713629      -0.00455485      -0.01639340
Pt       5.61226213       4.86333510      26.91973851        1       0.00751481      -0.00387542      -0.01638363
Pt       8.42184487       4.86212182      26.90647579        1      -0.00063352       0.00817299       0.03986859
C        4.21081912       5.67260495      32.18268150        0      -0.00001469      -0.00000058       0.03680875
O        4.21082800       5.67261819      33.36389504        0       0.00000784       0.00000120       0.00520966
O        4.21080851       5.67259104      31.00256614        0       0.00000721      -0.00000070      -0.03411365
