39
Lattice="8.421641763931781 0.0 0.0 4.2108208819658905 7.293355709136913 0.0 0.0 0.0 46.87624170604845" Properties=species:S:1:pos:R:3:tags:I:1:forces:R:3 charge=0 spin=0 energy=-209.36766623591382 free_energy=-209.36766623591382 stress="0.010384232737123966 -1.1075065309285037e-09 -8.616998670163412e-09 -1.1075065309285037e-09 0.01038426160812378 -6.784905792756035e-08 -8.616998670163412e-09 -6.784905792756035e-08 -0.00026266759959980845" pbc="T T T"
Pt      -0.00000001       0.00000022      19.95723425        4       0.00004798      -0.00001452       0.01509122
Pt       2.80721397      -0.00000009      19.95723437        4      -0.00026352       0.00035827       0.01508847
Pt       5.61442779      -0.00000006      19.95723442        4       0.00043679       0.00005528       0.01508111
Pt       1.40360720       2.43111836      19.95723428        4      -0.00001237       0.00004673       0.01508963
Pt       4.21082081       2.43111834      19.95723435        4       0.00013598      -0.00048626       0.01549336
Pt       7.01803481       2.43111842      19.95723424        4      -0.00003477      -0.00003107       0.01509067
Pt       2.80721405       4.86223723      19.95723396        4      -0.00049251       0.00012380       0.01550021
Pt       5.61442805       4.86223729      19.95723414        4       0.00035748       0.00035643       0.01550002
Pt       8.42164141       4.86223719      19.95723428        4      -0.00017521      -0.00040943       0.01509419
Pt       1.40360726       0.81037260      22.29206791        3       0.00036943       0.00022644      -0.04344658
Pt       4.21082130       0.81037249      22.29206785        3      -0.00042376       0.00032217      -0.04302115
Pt       7.01803472       0.81037257      22.29206783        3       0.00001125      -0.00043681      -0.04344431
Pt       2.80721450       3.24149124      22.29206777        3       0.00034296       0.00035184      -0.04679272
Pt       5.61442762       3.24149124      22.29206789        3      -0.00047729       0.00013113      -0.04678629
Pt       8.42164156       3.24149128      22.29206809        3      -0.00037825       0.00021443      -0.04343533
Pt       4.21082092       5.67260996      22.29206799        3       0.00012574      -0.00047771      -0.04679124
Pt       7.01803487       5.67261037      22.29206782        3      -0.00006844      -0.00052022      -0.04300970
Pt       9.82524820       5.67261064      22.29206809        3       0.00049030       0.00019374      -0.04301361
Pt      -0.00000052       1.62074570      24.58417379        2       0.00000646       0.00000758       0.00233785
Pt       2.80721442       1.62074548      24.58417394        2      -0.00516369      -0.00668656       0.01498627
Pt       5.61442780       1.62074537      24.58417373        2       0.00531585      -0.00671711       0.01518897
Pt       1.40360637       4.05186438      24.58417386        2      -0.00846967      -0.00124139       0.01514931
Pt       4.21082089       4.05186400      24.58417379        2       0.00000625       0.00001407      -0.01687907
Pt       7.01803504       4.05186405      24.58417405        2       0.00837615      -0.00111822       0.01494411
Pt       2.80721281       6.48298343      24.58417366        2      -0.00321297       0.00781185       0.01495254
Pt       5.61442797       6.48298326      24.58417386        2       0.00315805       0.00796546       0.01516220
Pt       8.42164223       6.48298340      24.58417377        2      -0.00000976      -0.00001358       0.01490851
Pt      -0.00042165       0.00312763      26.91346379        1       0.00144245      -0.01526085       0.00923248
Pt       2.81045072      -0.00204380      26.91565172        1      -0.02010712       0.01248142       0.00251072
Pt       5.61103314      -0.00176826      26.91564902        1       0.02087101       0.01112147       0.00253227
Pt       1.40111471       2.42919232      26.91346873        1       0.01249648       0.00886398       0.00922947
Pt       4.21061255       2.43319257      26.90627939        1       0.00093641      -0.01935024       0.04275353
Pt       7.02095030       2.42991991      26.91346822        1      -0.01394053       0.00636950       0.00925057
Pt       2.80910368       4.86138322      26.90627592        1      -0.01718848       0.00887715       0.04275291
Pt       5.61274413       4.86102086      26.90628320        1       0.01625941       0.01050811       0.04272711
Pt       8.42179912       4.86605476      26.91565299        1      -0.00076843      -0.02363607       0.00252803
C        8.42164328       1.62074590      32.17222977        0      -0.00001241       0.00000910       0.02058689
O        8.42163967       1.62074343      33.35341065        0       0.00000638      -0.00000433       0.00663518
O        8.42164564       1.62074960      30.99194559        0       0.00000632      -0.00000544      -0.01877756
