39
Lattice="8.421641763931781 0.0 0.0 4.2108208819658905 7.293355709136913 0.0 0.0 0.0 46.87624170604845" Properties=species:S:1:pos:R:3:tags:I:1:forces:R:3 charge=0 spin=0 energy=-209.36804675196606 free_energy=-209.36804675196606 stress="0.010483426973223686 1.793448278775145e-09 2.483255601148926e-09 1.793448278775145e-09 0.01048344187438488 -6.088112058932893e-08 2.483255601148926e-09 -6.088112058932893e-08 -7.11114116711542e-05" pbc="T T T"
Pt      -0.00000001       0.00000022      19.95723425        4       0.00015321       0.00028438       0.01501098
Pt       2.80721397      -0.00000009      19.95723437        4       0.00017320       0.00011948       0.01520691
Pt       5.61442779      -0.00000006      19.95723442        4       0.00001333      -0.00020670       0.01519659
Pt       1.40360720       2.43111836      19.95723428        4      -0.00032450      -0.00001118       0.01501410
Pt       4.21082081       2.43111834      19.95723435        4      -0.00000167       0.00067243       0.01560740
Pt       7.01803481       2.43111842      19.95723424        4       0.00017230      -0.00027223       0.01501287
Pt       2.80721405       4.86223723      19.95723396        4       0.00058271      -0.00033561       0.01560524
Pt       5.61442805       4.86223729      19.95723414        4      -0.00058036      -0.00034199       0.01560555
Pt       8.42164141       4.86223719      19.95723428        4      -0.00018834       0.00009205       0.01520615
Pt       1.40360726       0.81037260      22.29206791        3      -0.00099439       0.00041121      -0.04780833
Pt       4.21082130       0.81037249      22.29206785        3      -0.00037345      -0.00012437      -0.04312233
Pt       7.01803472       0.81037257      22.29206783        3       0.00085386       0.00065267      -0.04780634
Pt       2.80721450       3.24149124      22.29206777        3      -0.00077390      -0.00006666      -0.04420895
Pt       5.61442762       3.24149124      22.29206789        3       0.00044694      -0.00062671      -0.04420668
Pt       8.42164156       3.24149128      22.29206809        3       0.00014579      -0.00105719      -0.04780988
Pt       4.21082092       5.67260996      22.29206799        3       0.00031929       0.00070083      -0.04421655
Pt       7.01803487       5.67261037      22.29206782        3       0.00029212      -0.00025826      -0.04313242
Pt       9.82524820       5.67261064      22.29206809        3       0.00008182       0.00037379      -0.04313720
Pt      -0.00000052       1.62074570      24.58417379        2      -0.00000329       0.00000001       0.02646088
Pt       2.80721442       1.62074548      24.58417394        2       0.01082093       0.00603780       0.02975913
Pt       5.61442780       1.62074537      24.58417373        2      -0.01072526       0.00608382       0.02860797
Pt       1.40360637       4.05186438      24.58417386        2       0.01064822       0.00624591       0.02858068
Pt       4.21082089       4.05186400      24.58417379        2      -0.00000456      -0.00001298       0.06776834
Pt       7.01803504       4.05186405      24.58417405        2      -0.01062912       0.00635884       0.02971576
Pt       2.80721281       6.48298343      24.58417366        2      -0.00018587      -0.01240179       0.02969872
Pt       5.61442797       6.48298326      24.58417386        2       0.00008411      -0.01233297       0.02851737
Pt       8.42164223       6.48298340      24.58417377        2       0.00000154      -0.00000072       0.04253367
Pt      -0.00056652      -0.00302355      26.91446387        1       0.00131081       0.01245555       0.00933496
Pt       2.80194914       0.00231455      26.91379990        1       0.03585457      -0.01700621       0.00619301
Pt       5.61907519       0.00338965      26.91380701        1      -0.03272185      -0.02244948       0.00618156
Pt       1.40650102       2.43212943      26.91446780        1      -0.01138342      -0.00501367       0.00933066
Pt       4.21103155       2.42835643      26.92246606        1      -0.00134541       0.02295266      -0.02954818
Pt       7.01570568       2.43312305      26.91446965        1       0.01007364      -0.00740687       0.00935012
Pt       2.80472583       4.86343173      26.92246141        1       0.02051884      -0.01033530      -0.02951873
Pt       5.61670977       4.86379945      26.92245505        1      -0.01920091      -0.01267916      -0.02948334
Pt       8.42226302       4.85652395      26.91380212        1      -0.00311123       0.03949827       0.00623092
C        8.42164193       1.62074783      32.27873424        0      -0.00000002      -0.00000088      -0.03127266
O        8.42164011       1.62074288      33.45972064        0      -0.00000004       0.00000041       0.02458857
O        8.42164402       1.62075253      31.09819618        0       0.00000016       0.00000064       0.00495393
