39
Lattice="8.421641763931781 0.0 0.0 4.2108208819658905 7.293355709136913 0.0 0.0 0.0 46.87624170604845" Properties=species:S:1:pos:R:3:tags:I:1:forces:R:3 charge=0 spin=0 energy=-209.36888884638745 free_energy=-209.36888884638745 stress="0.010478457435965538 -2.809990462537826e-09 1.449988351609477e-09 -2.809990462537826e-09 0.010478412732481956 -2.958490397109159e-10 1.449988351609477e-09 -2.958490397109159e-10 -7.964753604028374e-05" pbc="T T T"
Pt      -0.00000001       0.00000022      19.95723425        4       0.00008547       0.00005532       0.01513208
Pt       2.80721397      -0.00000009      19.95723437        4      -0.00003542       0.00025004       0.01518658
Pt       5.61442779      -0.00000006      19.95723442        4       0.00023011      -0.00009055       0.01517740
Pt       1.40360720       2.43111836      19.95723428        4      -0.00009244       0.00004209       0.01513306
Pt       4.21082081       2.43111834      19.95723435        4       0.00009429      -0.00005383       0.01558113
Pt       7.01803481       2.43111842      19.95723424        4       0.00000818      -0.00010153       0.01513302
Pt       2.80721405       4.86223723      19.95723396        4      -0.00009437      -0.00005732       0.01558340
Pt       5.61442805       4.86223729      19.95723414        4       0.00000137       0.00010245       0.01558304
Pt       8.42164141       4.86223719      19.95723428        4      -0.00019668      -0.00015700       0.01518989
Pt       1.40360726       0.81037260      22.29206791        3      -0.00031787       0.00031271      -0.04584160
Pt       4.21082130       0.81037249      22.29206785        3      -0.00038358       0.00019420      -0.04305456
Pt       7.01803472       0.81037257      22.29206783        3       0.00043485       0.00010608      -0.04583887
Pt       2.80721450       3.24149124      22.29206777        3      -0.00016982       0.00006980      -0.04604210
Pt       5.61442762       3.24149124      22.29206789        3       0.00002166      -0.00017691      -0.04603751
Pt       8.42164156       3.24149128      22.29206809        3      -0.00011577      -0.00043034      -0.04584309
Pt       4.21082092       5.67260996      22.29206799        3       0.00013947       0.00009905      -0.04604628
Pt       7.01803487       5.67261037      22.29206782        3       0.00001590      -0.00043220      -0.04306112
Pt       9.82524820       5.67261064      22.29206809        3       0.00036546       0.00021326      -0.04306532
Pt      -0.00000052       1.62074570      24.58417379        2       0.00000489      -0.00000980       0.02598295
Pt       2.80721442       1.62074548      24.58417394        2       0.00244193      -0.00063414       0.03428676
Pt       5.61442780       1.62074537      24.58417373        2      -0.00250185      -0.00135016       0.03383477
Pt       1.40360637       4.05186438      24.58417386        2       0.00009374       0.00285136       0.03378902
Pt       4.21082089       4.05186400      24.58417379        2      -0.00000123       0.00000846       0.03461115
Pt       7.01803504       4.05186405      24.58417405        2      -0.00066105       0.00243749       0.03423365
Pt       2.80721281       6.48298343      24.58417366        2      -0.00175482      -0.00175658       0.03426974
Pt       5.61442797       6.48298326      24.58417386        2       0.00240379      -0.00144628       0.03380954
Pt       8.42164223       6.48298340      24.58417377        2      -0.00000479       0.00002283       0.03411074
Pt      -0.00008774      -0.00001954      26.91606150        1      -0.00009165       0.00141707      -0.00127958
Pt       2.80802887      -0.00026479      26.91720031        1      -0.00427370       0.00238122      -0.00586177
Pt       5.61377730      -0.00053950      26.91720288        1       0.00418100       0.00250718      -0.00585503
Pt       1.40369376       2.43107224      26.91603584        1      -0.00116133      -0.00076165      -0.00113011
Pt       4.21096674       2.43134412      26.91648038        1      -0.00073099      -0.00111650      -0.00363525
Pt       7.01804621       2.43122587      26.91603856        1       0.00124543      -0.00062500      -0.00113486
Pt       2.80732236       4.86203721      26.91647115        1      -0.00058173       0.00114857      -0.00364369
Pt       5.61418158       4.86227904      26.91647047        1       0.00130510      -0.00010192      -0.00364197
Pt       8.42148307       4.86309488      26.91718436        1       0.00009629      -0.00491734      -0.00581355
C        8.42161265       1.62062549      32.25816659        0       0.00007790      -0.00022785      -0.01418261
O        8.42166628       1.62069345      33.43928573        0      -0.00003844       0.00011457       0.01211990
O        8.42157174       1.62052107      31.07765781        0      -0.00003924       0.00011328       0.00226123
