39
Lattice="8.421641763931781 0.0 0.0 4.2108208819658905 7.293355709136913 0.0 0.0 0.0 46.87624170604845" Properties=species:S:1:pos:R:3:tags:I:1:forces:R:3 charge=0 spin=0 energy=-209.36633681391675 free_energy=-209.36633681391675 stress="0.010483112186193466 2.071806282089028e-09 -2.0261513355990246e-08 2.071806282089028e-09 0.010483166202902794 1.7185101341965492e-07 -2.0261513355990246e-08 1.7185101341965492e-07 -7.654247747268528e-05" pbc="T T T"
Pt      -0.00000001       0.00000022      19.95723425        4       0.00010630       0.00065069       0.01519608
Pt       2.80721397      -0.00000009      19.95723437        4       0.00004846       0.00013878       0.01522793
Pt       5.61442779      -0.00000006      19.95723442        4       0.00009175      -0.00010689       0.01521883
Pt       1.40360720       2.43111836      19.95723428        4      -0.00061987      -0.00023518       0.01519207
Pt       4.21082081       2.43111834      19.95723435        4       0.00005838       0.00060440       0.01572018
Pt       7.01803481       2.43111842      19.95723424        4       0.00051334      -0.00041507       0.01519158
Pt       2.80721405       4.86223723      19.95723396        4       0.00049136      -0.00035520       0.01572387
Pt       5.61442805       4.86223729      19.95723414        4      -0.00055011      -0.00025632       0.01572343
Pt       8.42164141       4.86223719      19.95723428        4      -0.00014326      -0.00002719       0.01522640
Pt       1.40360726       0.81037260      22.29206791        3      -0.00028939       0.00019690      -0.04510890
Pt       4.21082130       0.81037249      22.29206785        3      -0.00020018      -0.00045625      -0.04443608
Pt       7.01803472       0.81037257      22.29206783        3       0.00030878       0.00015172      -0.04510948
Pt       2.80721450       3.24149124      22.29206777        3      -0.00037477       0.00011261      -0.04446107
Pt       5.61442762       3.24149124      22.29206789        3       0.00008835      -0.00036576      -0.04445930
Pt       8.42164156       3.24149128      22.29206809        3      -0.00002371      -0.00033486      -0.04511509
Pt       4.21082092       5.67260996      22.29206799        3       0.00026981       0.00026415      -0.04446212
Pt       7.01803487       5.67261037      22.29206782        3       0.00049244       0.00006372      -0.04443605
Pt       9.82524820       5.67261064      22.29206809        3      -0.00029941       0.00038982      -0.04444105
Pt      -0.00000052       1.62074570      24.58417379        2       0.00000541       0.00001098       0.04983102
Pt       2.80721442       1.62074548      24.58417394        2      -0.00248615       0.00639937       0.02875732
Pt       5.61442780       1.62074537      24.58417373        2       0.00227224       0.00637817       0.02786238
Pt       1.40360637       4.05186438      24.58417386        2       0.00439270      -0.00515355       0.02781971
Pt       4.21082089       4.05186400      24.58417379        2      -0.00000057      -0.00000131       0.04853317
Pt       7.01803504       4.05186405      24.58417405        2      -0.00426564      -0.00535001       0.02869477
Pt       2.80721281       6.48298343      24.58417366        2       0.00677461      -0.00102914       0.02867855
Pt       5.61442797       6.48298326      24.58417386        2      -0.00665060      -0.00119984       0.02777502
Pt       8.42164223       6.48298340      24.58417377        2      -0.00000020       0.00000395       0.04217659
Pt      -0.00032804      -0.00207851      26.92115914        1       0.00039371       0.01181095      -0.02564204
Pt       2.80188669       0.00272131      26.91385875        1       0.03247138      -0.01700369       0.00672712
Pt       5.61945208       0.00325432      26.91386088        1      -0.03098062      -0.01956857       0.00670660
Pt       1.40557449       2.43187232      26.92116564        1      -0.01036999      -0.00555369      -0.02563297
Pt       4.21080345       2.42658916      26.91591808        1      -0.00003231       0.03114298      -0.00252629
Pt       7.01640411       2.43244763      26.92116632        1       0.00997548      -0.00625884      -0.02566422
Pt       2.80330319       4.86452484      26.91590941        1       0.02699698      -0.01557093      -0.00253831
Pt       5.61836523       4.86449053      26.91590560        1      -0.02696456      -0.01565014      -0.00253704
Pt       8.42195472       4.85626728      26.91385795        1      -0.00149962       0.03657309       0.00667566
C        8.42163809       1.62074319      32.06824912        0      -0.00000626       0.00000016       0.00468183
O        8.42164433       1.62074875      33.24957279        0       0.00000326       0.00000051      -0.01202414
O        8.42163178       1.62073717      30.88753295        0       0.00000256      -0.00000042       0.02525421
