39
Lattice="8.421641763931781 0.0 0.0 4.2108208819658905 7.293355709136913 0.0 0.0 0.0 46.87624170604845" Properties=species:S:1:pos:R:3:tags:I:1:forces:R:3 charge=0 spin=0 energy=-209.3680438909431 free_energy=-209.3680438909431 stress="0.010483428835868835 1.6808505698406861e-09 6.510534333870055e-10 1.6808505698406861e-09 0.010483449324965477 -6.0773587051699e-08 6.510534333870055e-10 -6.0773587051699e-08 -7.094348256941885e-05" pbc="T T T"
Pt      -0.00000001       0.00000022      19.95723425        4       0.00015330       0.00028452       0.01501079
Pt       2.80721397      -0.00000009      19.95723437        4       0.00017278       0.00011944       0.01520685
Pt       5.61442779      -0.00000006      19.95723442        4       0.00001362      -0.00020653       0.01519640
Pt       1.40360720       2.43111836      19.95723428        4      -0.00032464      -0.00001144       0.01501412
Pt       4.21082081       2.43111834      19.95723435        4      -0.00000162       0.00067236       0.01560732
Pt       7.01803481       2.43111842      19.95723424        4       0.00017226      -0.00027241       0.01501287
Pt       2.80721405       4.86223723      19.95723396        4       0.00058275      -0.00033536       0.01560511
Pt       5.61442805       4.86223729      19.95723414        4      -0.00058027      -0.00034203       0.01560541
Pt       8.42164141       4.86223719      19.95723428        4      -0.00018824       0.00009194       0.01520609
Pt       1.40360726       0.81037260      22.29206791        3      -0.00099412       0.00041072      -0.04780676
Pt       4.21082130       0.81037249      22.29206785        3      -0.00037305      -0.00012478      -0.04312431
Pt       7.01803472       0.81037257      22.29206783        3       0.00085354       0.00065267      -0.04780503
Pt       2.80721450       3.24149124      22.29206777        3      -0.00077404      -0.00006669      -0.04420951
Pt       5.61442762       3.24149124      22.29206789        3       0.00044734      -0.00062643      -0.04420642
Pt       8.42164156       3.24149128      22.29206809        3       0.00014547      -0.00105656      -0.04780899
Pt       4.21082092       5.67260996      22.29206799        3       0.00031877       0.00070124      -0.04421553
Pt       7.01803487       5.67261037      22.29206782        3       0.00029210      -0.00025799      -0.04313328
Pt       9.82524820       5.67261064      22.29206809        3       0.00008163       0.00037402      -0.04313884
Pt      -0.00000052       1.62074570      24.58417379        2      -0.00000336      -0.00000256       0.02646289
Pt       2.80721442       1.62074548      24.58417394        2       0.01081678       0.00603933       0.02975931
Pt       5.61442780       1.62074537      24.58417373        2      -0.01072087       0.00608434       0.02860884
Pt       1.40360637       4.05186438      24.58417386        2       0.01064709       0.00624183       0.02858145
Pt       4.21082089       4.05186400      24.58417379        2      -0.00000374      -0.00001248       0.06776685
Pt       7.01803504       4.05186405      24.58417405        2      -0.01062899       0.00635541       0.02971620
Pt       2.80721281       6.48298343      24.58417366        2      -0.00018193      -0.01239834       0.02970224
Pt       5.61442797       6.48298326      24.58417386        2       0.00007957      -0.01232993       0.02852019
Pt       8.42164223       6.48298340      24.58417377        2       0.00000104      -0.00000057       0.04253580
Pt      -0.00056657      -0.00302134      26.91446613        1       0.00131070       0.01244159       0.00932054
Pt       2.80194837       0.00231521      26.91379939        1       0.03585805      -0.01701038       0.00619390
Pt       5.61907563       0.00338993      26.91380683        1      -0.03272377      -0.02245164       0.00618018
Pt       1.40649917       2.43212829      26.91446969        1      -0.01137202      -0.00500749       0.00932635
Pt       4.21103149       2.42835549      26.92246379        1      -0.00134542       0.02295957      -0.02954097
Pt       7.01570753       2.43312200      26.91447139        1       0.01006102      -0.00740092       0.00934455
Pt       2.80472542       4.86343194      26.92245953        1       0.02052779      -0.01033604      -0.02951285
Pt       5.61671054       4.86379993      26.92245374        1      -0.01920760      -0.01268136      -0.02948018
Pt       8.42226347       4.85652326      26.91380116        1      -0.00311233       0.03950347       0.00623098
C        8.42164152       1.62074794      32.27876130        0       0.00001204      -0.00000355      -0.03093943
O        8.42164044       1.62074276      33.45975116        0      -0.00000593       0.00000148       0.02423166
O        8.42164406       1.62075249      31.09822366        0      -0.00000583       0.00000164       0.00497547
