39
Lattice="8.421641763931781 0.0 0.0 4.2108208819658905 7.293355709136913 0.0 0.0 0.0 46.87624170604845" Properties=species:S:1:pos:R:3:tags:I:1:forces:R:3 charge=0 spin=0 energy=-209.36804675196606 free_energy=-209.36804675196606 stress="0.010483438149094582 2.694286127535861e-09 2.376974450601921e-10 2.694286127535861e-09 0.010483451187610626 -6.477138470017962e-08 2.376974450601921e-10 -6.477138470017962e-08 -7.091366569511592e-05" pbc="T T T"
Pt      -0.00000001       0.00000022      19.95723425        4       0.00015306       0.00028462       0.01501062
Pt       2.80721397      -0.00000009      19.95723437        4       0.00017279       0.00011967       0.01520685
Pt       5.61442779      -0.00000006      19.95723442        4       0.00001364      -0.00020634       0.01519654
Pt       1.40360720       2.43111836      19.95723428        4      -0.00032461      -0.00001131       0.01501404
Pt       4.21082081       2.43111834      19.95723435        4      -0.00000186       0.00067231       0.01560744
Pt       7.01803481       2.43111842      19.95723424        4       0.00017235      -0.00027217       0.01501294
Pt       2.80721405       4.86223723      19.95723396        4       0.00058275      -0.00033568       0.01560543
Pt       5.61442805       4.86223729      19.95723414        4      -0.00057999      -0.00034199       0.01560549
Pt       8.42164141       4.86223719      19.95723428        4      -0.00018798       0.00009151       0.01520615
Pt       1.40360726       0.81037260      22.29206791        3      -0.00099329       0.00041011      -0.04780700
Pt       4.21082130       0.81037249      22.29206785        3      -0.00037318      -0.00012531      -0.04312581
Pt       7.01803472       0.81037257      22.29206783        3       0.00085285       0.00065162      -0.04780464
Pt       2.80721450       3.24149124      22.29206777        3      -0.00077333      -0.00006666      -0.04420776
Pt       5.61442762       3.24149124      22.29206789        3       0.00044759      -0.00062681      -0.04420581
Pt       8.42164156       3.24149128      22.29206809        3       0.00014526      -0.00105664      -0.04780557
Pt       4.21082092       5.67260996      22.29206799        3       0.00031905       0.00070092      -0.04421773
Pt       7.01803487       5.67261037      22.29206782        3       0.00029231      -0.00025749      -0.04313593
Pt       9.82524820       5.67261064      22.29206809        3       0.00008132       0.00037424      -0.04314049
Pt      -0.00000052       1.62074570      24.58417379        2      -0.00000301       0.00000819       0.02647591
Pt       2.80721442       1.62074548      24.58417394        2       0.01080899       0.00604335       0.02977154
Pt       5.61442780       1.62074537      24.58417373        2      -0.01071313       0.00608962       0.02862014
Pt       1.40360637       4.05186438      24.58417386        2       0.01064273       0.00623119       0.02858769
Pt       4.21082089       4.05186400      24.58417379        2      -0.00000476      -0.00001854       0.06775060
Pt       7.01803504       4.05186405      24.58417405        2      -0.01062314       0.00634302       0.02972081
Pt       2.80721281       6.48298343      24.58417366        2      -0.00018380      -0.01239424       0.02969826
Pt       5.61442797       6.48298326      24.58417386        2       0.00007993      -0.01232440       0.02851272
Pt       8.42164223       6.48298340      24.58417377        2       0.00000102      -0.00000087       0.04253570
Pt      -0.00056715      -0.00301939      26.91446496        1       0.00131178       0.01243893       0.00933267
Pt       2.80194827       0.00231524      26.91379879        1       0.03585880      -0.01700498       0.00619296
Pt       5.61907487       0.00339046      26.91380631        1      -0.03272033      -0.02245102       0.00617994
Pt       1.40649794       2.43212764      26.91447589        1      -0.01136552      -0.00500505       0.00929361
Pt       4.21103207       2.42835632      26.92246523        1      -0.00134764       0.02294911      -0.02954084
Pt       7.01570916       2.43312114      26.91447769        1       0.01005274      -0.00739707       0.00931357
Pt       2.80472610       4.86343109      26.92245476        1       0.02051528      -0.01033168      -0.02949566
Pt       5.61670970       4.86379955      26.92244806        1      -0.01919879      -0.01268029      -0.02945541
Pt       8.42226340       4.85652292      26.91380146        1      -0.00311022       0.03950008       0.00622999
C        8.42164141       1.62074771      32.27883748        0       0.00000557      -0.00000061      -0.03161699
O        8.42164038       1.62074278      33.45982209        0      -0.00000261       0.00000026       0.02456516
O        8.42164366       1.62075262      31.09829583        0      -0.00000243       0.00000047       0.00531288
