39
Lattice="8.421641763931781 0.0 0.0 4.2108208819658905 7.293355709136913 0.0 0.0 0.0 46.87624170604845" Properties=species:S:1:pos:R:3:tags:I:1:forces:R:3 charge=0 spin=0 energy=-209.36765860651929 free_energy=-209.36765860651929 stress="0.010384333319962025 -2.5554522942172753e-09 -6.587593137652448e-09 -2.5554522942172753e-09 0.010384363122284412 -6.955177411782643e-08 -6.587593137652448e-09 -6.955177411782643e-08 -0.0002622884640004486" pbc="T T T"
Pt      -0.00000001       0.00000022      19.95723425        4       0.00004814      -0.00001399       0.01509124
Pt       2.80721397      -0.00000009      19.95723437        4      -0.00026361       0.00035828       0.01508897
Pt       5.61442779      -0.00000006      19.95723442        4       0.00043669       0.00005546       0.01508121
Pt       1.40360720       2.43111836      19.95723428        4      -0.00001269       0.00004599       0.01509010
Pt       4.21082081       2.43111834      19.95723435        4       0.00013575      -0.00048560       0.01549368
Pt       7.01803481       2.43111842      19.95723424        4      -0.00003397      -0.00003138       0.01509099
Pt       2.80721405       4.86223723      19.95723396        4      -0.00049169       0.00012333       0.01550085
Pt       5.61442805       4.86223729      19.95723414        4       0.00035695       0.00035617       0.01550042
Pt       8.42164141       4.86223719      19.95723428        4      -0.00017539      -0.00040943       0.01509474
Pt       1.40360726       0.81037260      22.29206791        3       0.00036920       0.00022610      -0.04344728
Pt       4.21082130       0.81037249      22.29206785        3      -0.00042331       0.00032057      -0.04302349
Pt       7.01803472       0.81037257      22.29206783        3       0.00001095      -0.00043694      -0.04344378
Pt       2.80721450       3.24149124      22.29206777        3       0.00034236       0.00035202      -0.04678990
Pt       5.61442762       3.24149124      22.29206789        3      -0.00047690       0.00013106      -0.04678357
Pt       8.42164156       3.24149128      22.29206809        3      -0.00037864       0.00021462      -0.04343572
Pt       4.21082092       5.67260996      22.29206799        3       0.00012590      -0.00047659      -0.04678870
Pt       7.01803487       5.67261037      22.29206782        3      -0.00006754      -0.00051920      -0.04301134
Pt       9.82524820       5.67261064      22.29206809        3       0.00048983       0.00019415      -0.04301718
Pt      -0.00000052       1.62074570      24.58417379        2       0.00000509       0.00000883       0.00241866
Pt       2.80721442       1.62074548      24.58417394        2      -0.00517481      -0.00667505       0.01500884
Pt       5.61442780       1.62074537      24.58417373        2       0.00532789      -0.00670101       0.01520868
Pt       1.40360637       4.05186438      24.58417386        2      -0.00846331      -0.00125958       0.01516382
Pt       4.21082089       4.05186400      24.58417379        2       0.00000691       0.00001189      -0.01685616
Pt       7.01803504       4.05186405      24.58417405        2       0.00837110      -0.00113759       0.01496237
Pt       2.80721281       6.48298343      24.58417366        2      -0.00319470       0.00781588       0.01496825
Pt       5.61442797       6.48298326      24.58417386        2       0.00314290       0.00796983       0.01518034
Pt       8.42164223       6.48298340      24.58417377        2      -0.00001381      -0.00001159       0.01492580
Pt      -0.00042192       0.00312359      26.91347975        1       0.00144123      -0.01522683       0.00915528
Pt       2.81044363      -0.00204038      26.91565054        1      -0.02006985       0.01246032       0.00250500
Pt       5.61103826      -0.00176452      26.91564595        1       0.02083810       0.01110395       0.00254291
Pt       1.40111842       2.42919380      26.91348439        1       0.01246618       0.00884744       0.00915224
Pt       4.21061297       2.43318986      26.90628168        1       0.00093828      -0.01933552       0.04273777
Pt       7.02094690       2.42992181      26.91348495        1      -0.01391182       0.00635525       0.00916244
Pt       2.80910201       4.86138433      26.90627875        1      -0.01717570       0.00887035       0.04274365
Pt       5.61274631       4.86102232      26.90628512        1       0.01624890       0.01049935       0.04271712
Pt       8.42179928       4.86604801      26.91564983        1      -0.00077449      -0.02359989       0.00253799
C        8.42164303       1.62074578      32.17194322        0      -0.00000040       0.00001074       0.02278533
O        8.42163966       1.62074354      33.35313767        0       0.00000013      -0.00000514       0.00525639
O        8.42164691       1.62074960      30.99166848        0       0.00000006      -0.00000593      -0.01956746
