39
Lattice="8.421641763931781 0.0 0.0 4.2108208819658905 7.293355709136913 0.0 0.0 0.0 46.87624170604845" Properties=species:S:1:pos:R:3:tags:I:1:forces:R:3 charge=0 spin=0 energy=-209.36888693903882 free_energy=-209.36888693903882 stress="0.010478466749191284 -1.235926361253803e-09 1.398997140356073e-09 -1.235926361253803e-09 0.010478422045707703 -3.477808263596671e-09 1.398997140356073e-09 -3.477808263596671e-09 -7.955267210491002e-05" pbc="T T T"
Pt      -0.00000001       0.00000022      19.95723425        4       0.00008541       0.00005538       0.01513185
Pt       2.80721397      -0.00000009      19.95723437        4      -0.00003550       0.00025007       0.01518649
Pt       5.61442779      -0.00000006      19.95723442        4       0.00023010      -0.00009042       0.01517763
Pt       1.40360720       2.43111836      19.95723428        4      -0.00009255       0.00004200       0.01513306
Pt       4.21082081       2.43111834      19.95723435        4       0.00009431      -0.00005408       0.01558117
Pt       7.01803481       2.43111842      19.95723424        4       0.00000843      -0.00010182       0.01513308
Pt       2.80721405       4.86223723      19.95723396        4      -0.00009428      -0.00005718       0.01558335
Pt       5.61442805       4.86223729      19.95723414        4       0.00000144       0.00010248       0.01558293
Pt       8.42164141       4.86223719      19.95723428        4      -0.00019685      -0.00015703       0.01518967
Pt       1.40360726       0.81037260      22.29206791        3      -0.00031806       0.00031242      -0.04584140
Pt       4.21082130       0.81037249      22.29206785        3      -0.00038352       0.00019443      -0.04305385
Pt       7.01803472       0.81037257      22.29206783        3       0.00043498       0.00010563      -0.04583856
Pt       2.80721450       3.24149124      22.29206777        3      -0.00017041       0.00006941      -0.04604266
Pt       5.61442762       3.24149124      22.29206789        3       0.00002169      -0.00017664      -0.04603763
Pt       8.42164156       3.24149128      22.29206809        3      -0.00011559      -0.00043045      -0.04584352
Pt       4.21082092       5.67260996      22.29206799        3       0.00013957       0.00009927      -0.04604672
Pt       7.01803487       5.67261037      22.29206782        3       0.00001580      -0.00043262      -0.04306168
Pt       9.82524820       5.67261064      22.29206809        3       0.00036538       0.00021316      -0.04306495
Pt      -0.00000052       1.62074570      24.58417379        2       0.00000312      -0.00001031       0.02597700
Pt       2.80721442       1.62074548      24.58417394        2       0.00244439      -0.00063603       0.03428615
Pt       5.61442780       1.62074537      24.58417373        2      -0.00250119      -0.00135188       0.03383677
Pt       1.40360637       4.05186438      24.58417386        2       0.00009498       0.00285348       0.03378723
Pt       4.21082089       4.05186400      24.58417379        2       0.00000044       0.00000984       0.03461729
Pt       7.01803504       4.05186405      24.58417405        2      -0.00066414       0.00243786       0.03423600
Pt       2.80721281       6.48298343      24.58417366        2      -0.00175598      -0.00175590       0.03427324
Pt       5.61442797       6.48298326      24.58417386        2       0.00240444      -0.00144766       0.03381512
Pt       8.42164223       6.48298340      24.58417377        2      -0.00000459       0.00002462       0.03411779
Pt      -0.00008770      -0.00001823      26.91606114        1      -0.00009265       0.00140694      -0.00127970
Pt       2.80802799      -0.00026430      26.91720114        1      -0.00426653       0.00237707      -0.00587062
Pt       5.61377788      -0.00053883      26.91720374        1       0.00417851       0.00250319      -0.00586307
Pt       1.40369291       2.43107185      26.91603505        1      -0.00115435      -0.00075686      -0.00111997
Pt       4.21096689       2.43134336      26.91648015        1      -0.00073166      -0.00110971      -0.00363549
Pt       7.01804737       2.43122546      26.91603791        1       0.00123726      -0.00062178      -0.00113282
Pt       2.80732220       4.86203749      26.91647159        1      -0.00057987       0.00114681      -0.00364660
Pt       5.61418198       4.86227920      26.91647091        1       0.00130087      -0.00010500      -0.00365147
Pt       8.42148271       4.86309449      26.91718494        1       0.00009631      -0.00490987      -0.00581315
C        8.42161206       1.62062518      32.25814823        0       0.00008344      -0.00021651      -0.01435271
O        8.42166621       1.62069650      33.43926556        0      -0.00004117       0.00010971       0.01210675
O        8.42157049       1.62051897      31.07763660        0      -0.00004200       0.00010795       0.00244410
