39
Lattice="8.421641763931781 0.0 0.0 4.2108208819658905 7.293355709136913 0.0 0.0 0.0 46.87624170604845" Properties=species:S:1:pos:R:3:tags:I:1:forces:R:3 charge=0 spin=0 energy=-209.3676595601936 free_energy=-209.3676595601936 stress="0.010384432040154934 -1.9575401299931627e-09 -4.816111065508721e-09 -1.9575401299931627e-09 0.0103844553232193 -6.72372806320709e-08 -4.816111065508721e-09 -6.72372806320709e-08 -0.0002626680943649262" pbc="T T T"
Pt      -0.00000001       0.00000022      19.95723425        4       0.00004816      -0.00001269       0.01509205
Pt       2.80721397      -0.00000009      19.95723437        4      -0.00026295       0.00035765       0.01508910
Pt       5.61442779      -0.00000006      19.95723442        4       0.00043577       0.00005515       0.01508162
Pt       1.40360720       2.43111836      19.95723428        4      -0.00001390       0.00004566       0.01509071
Pt       4.21082081       2.43111834      19.95723435        4       0.00013572      -0.00048423       0.01549396
Pt       7.01803481       2.43111842      19.95723424        4      -0.00003315      -0.00003203       0.01509167
Pt       2.80721405       4.86223723      19.95723396        4      -0.00049048       0.00012271       0.01550100
Pt       5.61442805       4.86223729      19.95723414        4       0.00035574       0.00035532       0.01550049
Pt       8.42164141       4.86223719      19.95723428        4      -0.00017519      -0.00040859       0.01509449
Pt       1.40360726       0.81037260      22.29206791        3       0.00036981       0.00022618      -0.04344568
Pt       4.21082130       0.81037249      22.29206785        3      -0.00042264       0.00031903      -0.04302663
Pt       7.01803472       0.81037257      22.29206783        3       0.00001090      -0.00043684      -0.04344255
Pt       2.80721450       3.24149124      22.29206777        3       0.00034220       0.00035197      -0.04678644
Pt       5.61442762       3.24149124      22.29206789        3      -0.00047654       0.00013036      -0.04678007
Pt       8.42164156       3.24149128      22.29206809        3      -0.00037794       0.00021468      -0.04343419
Pt       4.21082092       5.67260996      22.29206799        3       0.00012603      -0.00047615      -0.04678539
Pt       7.01803487       5.67261037      22.29206782        3      -0.00006631      -0.00051789      -0.04301521
Pt       9.82524820       5.67261064      22.29206809        3       0.00048783       0.00019469      -0.04302004
Pt      -0.00000052       1.62074570      24.58417379        2       0.00000458       0.00000891       0.00254151
Pt       2.80721442       1.62074548      24.58417394        2      -0.00519544      -0.00665947       0.01501189
Pt       5.61442780       1.62074537      24.58417373        2       0.00534822      -0.00668572       0.01521146
Pt       1.40360637       4.05186438      24.58417386        2      -0.00846038      -0.00128476       0.01516679
Pt       4.21082089       4.05186400      24.58417379        2       0.00000827       0.00001330      -0.01683438
Pt       7.01803504       4.05186405      24.58417405        2       0.00836773      -0.00116108       0.01497078
Pt       2.80721281       6.48298343      24.58417366        2      -0.00317265       0.00782587       0.01497296
Pt       5.61442797       6.48298326      24.58417386        2       0.00311795       0.00797687       0.01518501
Pt       8.42164223       6.48298340      24.58417377        2      -0.00001184      -0.00001210       0.01495735
Pt      -0.00042244       0.00311246      26.91349976        1       0.00144479      -0.01514039       0.00904658
Pt       2.81043076      -0.00203356      26.91564653        1      -0.01999815       0.01242198       0.00252410
Pt       5.61105056      -0.00175664      26.91564221        1       0.02076759       0.01105842       0.00255366
Pt       1.40112868       2.42919919      26.91350469        1       0.01239154       0.00880337       0.00904274
Pt       4.21061303       2.43318168      26.90628020        1       0.00093548      -0.01928654       0.04274691
Pt       7.02093748       2.42992787      26.91350530        1      -0.01383699       0.00631265       0.00905347
Pt       2.80909422       4.86138779      26.90627710        1      -0.01712984       0.00884952       0.04275370
Pt       5.61275316       4.86102677      26.90628415        1       0.01620629       0.01047357       0.04271854
Pt       8.42180056       4.86603385      26.91564591        1      -0.00077966      -0.02351943       0.00254861
C        8.42164282       1.62074582      32.17137473        0      -0.00000059       0.00000870       0.02050441
O        8.42164001       1.62074380      33.35255210        0       0.00000017      -0.00000406       0.00699286
O        8.42164658       1.62074902      30.99109178        0      -0.00000011      -0.00000461      -0.01896806
