39
Lattice="8.421641763931781 0.0 0.0 4.2108208819658905 7.293355709136913 0.0 0.0 0.0 46.87624170604845" Properties=species:S:1:pos:R:3:tags:I:1:forces:R:3 charge=0 spin=0 energy=-209.36804484461743 free_energy=-209.36804484461743 stress="0.010483469814062119 2.0481016882456515e-09 3.2464535504317382e-09 2.0481016882456515e-09 0.010483481921255589 -6.187119794276441e-08 3.2464535504317382e-09 -6.187119794276441e-08 -7.09640298737213e-05" pbc="T T T"
Pt      -0.00000001       0.00000022      19.95723425        4       0.00015318       0.00028441       0.01501071
Pt       2.80721397      -0.00000009      19.95723437        4       0.00017300       0.00011958       0.01520708
Pt       5.61442779      -0.00000006      19.95723442        4       0.00001342      -0.00020642       0.01519659
Pt       1.40360720       2.43111836      19.95723428        4      -0.00032447      -0.00001121       0.01501438
Pt       4.21082081       2.43111834      19.95723435        4      -0.00000161       0.00067240       0.01560725
Pt       7.01803481       2.43111842      19.95723424        4       0.00017198      -0.00027214       0.01501300
Pt       2.80721405       4.86223723      19.95723396        4       0.00058282      -0.00033563       0.01560498
Pt       5.61442805       4.86223729      19.95723414        4      -0.00058017      -0.00034220       0.01560541
Pt       8.42164141       4.86223719      19.95723428        4      -0.00018830       0.00009192       0.01520619
Pt       1.40360726       0.81037260      22.29206791        3      -0.00099414       0.00041034      -0.04780884
Pt       4.21082130       0.81037249      22.29206785        3      -0.00037338      -0.00012516      -0.04312329
Pt       7.01803472       0.81037257      22.29206783        3       0.00085392       0.00065246      -0.04780706
Pt       2.80721450       3.24149124      22.29206777        3      -0.00077406      -0.00006706      -0.04420827
Pt       5.61442762       3.24149124      22.29206789        3       0.00044757      -0.00062680      -0.04420648
Pt       8.42164156       3.24149128      22.29206809        3       0.00014560      -0.00105732      -0.04780819
Pt       4.21082092       5.67260996      22.29206799        3       0.00031916       0.00070167      -0.04421793
Pt       7.01803487       5.67261037      22.29206782        3       0.00029210      -0.00025758      -0.04313276
Pt       9.82524820       5.67261064      22.29206809        3       0.00008162       0.00037422      -0.04313785
Pt      -0.00000052       1.62074570      24.58417379        2      -0.00000358       0.00000662       0.02647370
Pt       2.80721442       1.62074548      24.58417394        2       0.01082098       0.00604456       0.02977643
Pt       5.61442780       1.62074537      24.58417373        2      -0.01072438       0.00608785       0.02862819
Pt       1.40360637       4.05186438      24.58417386        2       0.01064867       0.00623999       0.02859080
Pt       4.21082089       4.05186400      24.58417379        2      -0.00000439      -0.00001878       0.06777301
Pt       7.01803504       4.05186405      24.58417405        2      -0.01062940       0.00635276       0.02972521
Pt       2.80721281       6.48298343      24.58417366        2      -0.00018862      -0.01240157       0.02970624
Pt       5.61442797       6.48298326      24.58417386        2       0.00008400      -0.01233356       0.02852148
Pt       8.42164223       6.48298340      24.58417377        2       0.00000292       0.00000038       0.04253580
Pt      -0.00056707      -0.00302218      26.91446289        1       0.00131187       0.01245072       0.00933543
Pt       2.80194984       0.00231481      26.91379982        1       0.03585014      -0.01700349       0.00619239
Pt       5.61907404       0.00338988      26.91380807        1      -0.03271324      -0.02244635       0.00617138
Pt       1.40650050       2.43212911      26.91447316        1      -0.01137905      -0.00501237       0.00930578
Pt       4.21103205       2.42835778      26.92247108        1      -0.00134832       0.02294279      -0.02957127
Pt       7.01570660       2.43312290      26.91447502        1       0.01006719      -0.00740693       0.00932595
Pt       2.80472717       4.86343056      26.92246007        1       0.02051285      -0.01032786      -0.02951936
Pt       5.61670897       4.86379871      26.92245445        1      -0.01919464      -0.01267365      -0.02948539
Pt       8.42226333       4.85652440      26.91380181        1      -0.00311144       0.03949323       0.00623094
C        8.42164124       1.62074772      32.27875899        0       0.00001193      -0.00000121      -0.03076986
O        8.42164012       1.62074272      33.45974756        0      -0.00000610       0.00000059       0.02424472
O        8.42164427       1.62075258      31.09822063        0      -0.00000585       0.00000077       0.00479380
