39
Lattice="8.421641763931781 0.0 0.0 4.2108208819658905 7.293355709136913 0.0 0.0 0.0 46.87624170604845" Properties=species:S:1:pos:R:3:tags:I:1:forces:R:3 charge=0 spin=0 energy=-209.3676528844734 free_energy=-209.3676528844734 stress="0.01038457453250885 1.073560351727565e-09 -5.52618351079559e-09 1.073560351727565e-09 0.010384608060121536 -6.92980037797497e-08 -5.52618351079559e-09 -6.92980037797497e-08 -0.0002624241169542074" pbc="T T T"
Pt      -0.00000001       0.00000022      19.95723425        4       0.00004811      -0.00001130       0.01509279
Pt       2.80721397      -0.00000009      19.95723437        4      -0.00026276       0.00035732       0.01508984
Pt       5.61442779      -0.00000006      19.95723442        4       0.00043542       0.00005519       0.01508200
Pt       1.40360720       2.43111836      19.95723428        4      -0.00001523       0.00004476       0.01509118
Pt       4.21082081       2.43111834      19.95723435        4       0.00013582      -0.00048268       0.01549438
Pt       7.01803481       2.43111842      19.95723424        4      -0.00003199      -0.00003268       0.01509235
Pt       2.80721405       4.86223723      19.95723396        4      -0.00048916       0.00012222       0.01550136
Pt       5.61442805       4.86223729      19.95723414        4       0.00035450       0.00035452       0.01550093
Pt       8.42164141       4.86223719      19.95723428        4      -0.00017513      -0.00040811       0.01509523
Pt       1.40360726       0.81037260      22.29206791        3       0.00036965       0.00022603      -0.04344567
Pt       4.21082130       0.81037249      22.29206785        3      -0.00042210       0.00031708      -0.04302867
Pt       7.01803472       0.81037257      22.29206783        3       0.00001063      -0.00043663      -0.04344368
Pt       2.80721450       3.24149124      22.29206777        3       0.00034165       0.00035131      -0.04678246
Pt       5.61442762       3.24149124      22.29206789        3      -0.00047550       0.00013015      -0.04677640
Pt       8.42164156       3.24149128      22.29206809        3      -0.00037758       0.00021488      -0.04343482
Pt       4.21082092       5.67260996      22.29206799        3       0.00012639      -0.00047561      -0.04678167
Pt       7.01803487       5.67261037      22.29206782        3      -0.00006496      -0.00051649      -0.04301786
Pt       9.82524820       5.67261064      22.29206809        3       0.00048636       0.00019496      -0.04302225
Pt      -0.00000052       1.62074570      24.58417379        2       0.00000454       0.00000812       0.00267417
Pt       2.80721442       1.62074548      24.58417394        2      -0.00521397      -0.00664446       0.01503270
Pt       5.61442780       1.62074537      24.58417373        2       0.00536577      -0.00667023       0.01523100
Pt       1.40360637       4.05186438      24.58417386        2      -0.00845331      -0.00130858       0.01518499
Pt       4.21082089       4.05186400      24.58417379        2       0.00000707       0.00001332      -0.01680079
Pt       7.01803504       4.05186405      24.58417405        2       0.00836194      -0.00118654       0.01498865
Pt       2.80721281       6.48298343      24.58417366        2      -0.00314962       0.00783298       0.01499591
Pt       5.61442797       6.48298326      24.58417386        2       0.00309555       0.00798440       0.01520218
Pt       8.42164223       6.48298340      24.58417377        2      -0.00001251      -0.00000950       0.01500097
Pt      -0.00042309       0.00310141      26.91352349        1       0.00144140      -0.01505656       0.00892122
Pt       2.81041781      -0.00202742      26.91564367        1      -0.01992191       0.01238390       0.00252039
Pt       5.61106315      -0.00174869      26.91563982        1       0.02069244       0.01101665       0.00255057
Pt       1.40113761       2.42920389      26.91352807        1       0.01232053       0.00876235       0.00891768
Pt       4.21061320       2.43317580      26.90628221        1       0.00093574      -0.01925504       0.04273966
Pt       7.02092838       2.42993363      26.91352754        1      -0.01376611       0.00627057       0.00892741
Pt       2.80908902       4.86139075      26.90628041        1      -0.01710105       0.00883402       0.04274011
Pt       5.61275795       4.86103003      26.90628600        1       0.01617745       0.01045554       0.04271150
Pt       8.42180051       4.86601994      26.91564215        1      -0.00077785      -0.02343511       0.00255483
C        8.42164258       1.62074558      32.17070335        0       0.00001091       0.00001270       0.02040733
O        8.42163928       1.62074306      33.35187798        0      -0.00000549      -0.00000617       0.00696173
O        8.42164697       1.62074982      30.99041995        0      -0.00000559      -0.00000709      -0.01876874
