39
Lattice="8.421641763931781 0.0 0.0 4.2108208819658905 7.293355709136913 0.0 0.0 0.0 46.87624170604845" Properties=species:S:1:pos:R:3:tags:I:1:forces:R:3 charge=0 spin=0 energy=-209.3663349065681 free_energy=-209.3663349065681 stress="0.010483105666935444 1.8722721151220867e-09 -2.2391285270373373e-08 1.8722721151220867e-09 0.010483159683644772 1.7318042466740735e-07 -2.2391285270373373e-08 1.7318042466740735e-07 -7.647722668480128e-05" pbc="T T T"
Pt      -0.00000001       0.00000022      19.95723425        4       0.00010621       0.00065068       0.01519633
Pt       2.80721397      -0.00000009      19.95723437        4       0.00004838       0.00013874       0.01522801
Pt       5.61442779      -0.00000006      19.95723442        4       0.00009187      -0.00010714       0.01521887
Pt       1.40360720       2.43111836      19.95723428        4      -0.00061967      -0.00023521       0.01519213
Pt       4.21082081       2.43111834      19.95723435        4       0.00005827       0.00060461       0.01571999
Pt       7.01803481       2.43111842      19.95723424        4       0.00051340      -0.00041504       0.01519152
Pt       2.80721405       4.86223723      19.95723396        4       0.00049143      -0.00035533       0.01572377
Pt       5.61442805       4.86223729      19.95723414        4      -0.00055002      -0.00025632       0.01572341
Pt       8.42164141       4.86223719      19.95723428        4      -0.00014341      -0.00002721       0.01522636
Pt       1.40360726       0.81037260      22.29206791        3      -0.00028928       0.00019728      -0.04510852
Pt       4.21082130       0.81037249      22.29206785        3      -0.00020033      -0.00045627      -0.04443597
Pt       7.01803472       0.81037257      22.29206783        3       0.00030859       0.00015177      -0.04510798
Pt       2.80721450       3.24149124      22.29206777        3      -0.00037503       0.00011272      -0.04446076
Pt       5.61442762       3.24149124      22.29206789        3       0.00008797      -0.00036573      -0.04445970
Pt       8.42164156       3.24149128      22.29206809        3      -0.00002388      -0.00033462      -0.04511487
Pt       4.21082092       5.67260996      22.29206799        3       0.00026975       0.00026422      -0.04446218
Pt       7.01803487       5.67261037      22.29206782        3       0.00049285       0.00006430      -0.04443643
Pt       9.82524820       5.67261064      22.29206809        3      -0.00029938       0.00038983      -0.04444104
Pt      -0.00000052       1.62074570      24.58417379        2       0.00000348       0.00001198       0.04983053
Pt       2.80721442       1.62074548      24.58417394        2      -0.00248753       0.00639850       0.02875296
Pt       5.61442780       1.62074537      24.58417373        2       0.00227612       0.00637871       0.02786177
Pt       1.40360637       4.05186438      24.58417386        2       0.00439094      -0.00515508       0.02781527
Pt       4.21082089       4.05186400      24.58417379        2       0.00000129      -0.00000028       0.04853108
Pt       7.01803504       4.05186405      24.58417405        2      -0.00426603      -0.00535235       0.02869641
Pt       2.80721281       6.48298343      24.58417366        2       0.00677507      -0.00102724       0.02867614
Pt       5.61442797       6.48298326      24.58417386        2      -0.00665086      -0.00120055       0.02777440
Pt       8.42164223       6.48298340      24.58417377        2      -0.00000043       0.00000337       0.04217744
Pt      -0.00032802      -0.00207774      26.92116030        1       0.00039135       0.01180530      -0.02564249
Pt       2.80188651       0.00272152      26.91385865        1       0.03247342      -0.01700727       0.00672736
Pt       5.61945229       0.00325442      26.91386014        1      -0.03098314      -0.01956944       0.00670511
Pt       1.40557396       2.43187189      26.92116605        1      -0.01036732      -0.00555154      -0.02563108
Pt       4.21080371       2.42658854      26.91591668        1      -0.00003119       0.03114731      -0.00251893
Pt       7.01640446       2.43244723      26.92116647        1       0.00997197      -0.00625674      -0.02567232
Pt       2.80330259       4.86452489      26.91590766        1       0.02700297      -0.01557170      -0.00253053
Pt       5.61836572       4.86449067      26.91590428        1      -0.02696693      -0.01565156      -0.00253780
Pt       8.42195476       4.85626672      26.91385835        1      -0.00150134       0.03657732       0.00667604
C        8.42163821       1.62074367      32.06822490        0      -0.00000588      -0.00000064       0.00451883
O        8.42164460       1.62074918      33.24954972        0       0.00000321       0.00000103      -0.01203610
O        8.42163187       1.62073753      30.88750808        0       0.00000324      -0.00000021       0.02543301
