39
Lattice="8.421641763931781 0.0 0.0 4.2108208819658905 7.293355709136913 0.0 0.0 0.0 46.87624170604845" Properties=species:S:1:pos:R:3:tags:I:1:forces:R:3 charge=0 spin=0 energy=-209.36766242121655 free_energy=-209.36766242121655 stress="0.01038434263318777 -1.351458167597741e-09 -6.34756069928244e-09 -1.351458167597741e-09 0.010384378023445606 -6.741483105088264e-08 -6.34756069928244e-09 -6.741483105088264e-08 -0.0002627484791446477" pbc="T T T"
Pt      -0.00000001       0.00000022      19.95723425        4       0.00004813      -0.00001391       0.01509139
Pt       2.80721397      -0.00000009      19.95723437        4      -0.00026358       0.00035813       0.01508883
Pt       5.61442779      -0.00000006      19.95723442        4       0.00043655       0.00005543       0.01508134
Pt       1.40360720       2.43111836      19.95723428        4      -0.00001289       0.00004620       0.01509003
Pt       4.21082081       2.43111834      19.95723435        4       0.00013566      -0.00048517       0.01549374
Pt       7.01803481       2.43111842      19.95723424        4      -0.00003401      -0.00003142       0.01509110
Pt       2.80721405       4.86223723      19.95723396        4      -0.00049168       0.00012336       0.01550059
Pt       5.61442805       4.86223729      19.95723414        4       0.00035681       0.00035609       0.01550021
Pt       8.42164141       4.86223719      19.95723428        4      -0.00017535      -0.00040939       0.01509447
Pt       1.40360726       0.81037260      22.29206791        3       0.00036958       0.00022664      -0.04344740
Pt       4.21082130       0.81037249      22.29206785        3      -0.00042313       0.00032027      -0.04302374
Pt       7.01803472       0.81037257      22.29206783        3       0.00001095      -0.00043675      -0.04344336
Pt       2.80721450       3.24149124      22.29206777        3       0.00034255       0.00035194      -0.04678961
Pt       5.61442762       3.24149124      22.29206789        3      -0.00047648       0.00013077      -0.04678354
Pt       8.42164156       3.24149128      22.29206809        3      -0.00037838       0.00021458      -0.04343549
Pt       4.21082092       5.67260996      22.29206799        3       0.00012555      -0.00047665      -0.04678843
Pt       7.01803487       5.67261037      22.29206782        3      -0.00006743      -0.00051921      -0.04301209
Pt       9.82524820       5.67261064      22.29206809        3       0.00048946       0.00019415      -0.04301681
Pt      -0.00000052       1.62074570      24.58417379        2       0.00000436       0.00000871       0.00242813
Pt       2.80721442       1.62074548      24.58417394        2      -0.00517572      -0.00667214       0.01500824
Pt       5.61442780       1.62074537      24.58417373        2       0.00532871      -0.00670117       0.01521102
Pt       1.40360637       4.05186438      24.58417386        2      -0.00846364      -0.00126111       0.01516397
Pt       4.21082089       4.05186400      24.58417379        2       0.00000896       0.00001185      -0.01685136
Pt       7.01803504       4.05186405      24.58417405        2       0.00836860      -0.00113810       0.01496640
Pt       2.80721281       6.48298343      24.58417366        2      -0.00319510       0.00781672       0.01497078
Pt       5.61442797       6.48298326      24.58417386        2       0.00314051       0.00796728       0.01518048
Pt       8.42164223       6.48298340      24.58417377        2      -0.00001010      -0.00001109       0.01493197
Pt      -0.00042226       0.00312253      26.91348149        1       0.00144041      -0.01522075       0.00914631
Pt       2.81044215      -0.00203997      26.91565022        1      -0.02005968       0.01245920       0.00251422
Pt       5.61104053      -0.00176356      26.91564681        1       0.02082693       0.01109772       0.00253375
Pt       1.40111869       2.42919440      26.91348651        1       0.01246473       0.00884285       0.00914209
Pt       4.21061283       2.43318915      26.90628171        1       0.00093799      -0.01933084       0.04273502
Pt       7.02094602       2.42992246      26.91348708        1      -0.01390902       0.00635137       0.00915292
Pt       2.80910129       4.86138462      26.90627863        1      -0.01716977       0.00887021       0.04274632
Pt       5.61274684       4.86102282      26.90628575        1       0.01624458       0.01049332       0.04270769
Pt       8.42179933       4.86604601      26.91564916        1      -0.00077505      -0.02358805       0.00253757
C        8.42164281       1.62074596      32.17183651        0      -0.00000613       0.00000911       0.02112548
O        8.42163955       1.62074348      33.35301461        0       0.00000306      -0.00000448       0.00666487
O        8.42164599       1.62074966      30.99155822        0       0.00000293      -0.00000549      -0.01930699
