39
Lattice="8.421641763931781 0.0 0.0 4.2108208819658905 7.293355709136913 0.0 0.0 0.0 46.87624170604845" Properties=species:S:1:pos:R:3:tags:I:1:forces:R:3 charge=0 spin=0 energy=-209.36888693903882 free_energy=-209.36888693903882 stress="0.010478444397449493 -2.3491864009628216e-10 8.678267549022678e-10 -2.3491864009628216e-10 0.010478404350578785 -5.16498799285614e-09 8.678267549022678e-10 -5.16498799285614e-09 -7.965617987792939e-05" pbc="T T T"
Pt      -0.00000001       0.00000022      19.95723425        4       0.00008559       0.00005549       0.01513198
Pt       2.80721397      -0.00000009      19.95723437        4      -0.00003548       0.00024992       0.01518664
Pt       5.61442779      -0.00000006      19.95723442        4       0.00022994      -0.00009043       0.01517767
Pt       1.40360720       2.43111836      19.95723428        4      -0.00009255       0.00004204       0.01513310
Pt       4.21082081       2.43111834      19.95723435        4       0.00009434      -0.00005366       0.01558145
Pt       7.01803481       2.43111842      19.95723424        4       0.00000846      -0.00010178       0.01513287
Pt       2.80721405       4.86223723      19.95723396        4      -0.00009400      -0.00005732       0.01558344
Pt       5.61442805       4.86223729      19.95723414        4       0.00000111       0.00010249       0.01558304
Pt       8.42164141       4.86223719      19.95723428        4      -0.00019679      -0.00015701       0.01518995
Pt       1.40360726       0.81037260      22.29206791        3      -0.00031867       0.00031243      -0.04584201
Pt       4.21082130       0.81037249      22.29206785        3      -0.00038315       0.00019482      -0.04305379
Pt       7.01803472       0.81037257      22.29206783        3       0.00043526       0.00010600      -0.04583978
Pt       2.80721450       3.24149124      22.29206777        3      -0.00016984       0.00006927      -0.04604177
Pt       5.61442762       3.24149124      22.29206789        3       0.00002176      -0.00017643      -0.04603748
Pt       8.42164156       3.24149128      22.29206809        3      -0.00011588      -0.00043068      -0.04584472
Pt       4.21082092       5.67260996      22.29206799        3       0.00013960       0.00009919      -0.04604626
Pt       7.01803487       5.67261037      22.29206782        3       0.00001597      -0.00043304      -0.04306046
Pt       9.82524820       5.67261064      22.29206809        3       0.00036586       0.00021296      -0.04306491
Pt      -0.00000052       1.62074570      24.58417379        2       0.00000473      -0.00001019       0.02596596
Pt       2.80721442       1.62074548      24.58417394        2       0.00244656      -0.00063694       0.03428052
Pt       5.61442780       1.62074537      24.58417373        2      -0.00250579      -0.00135404       0.03382986
Pt       1.40360637       4.05186438      24.58417386        2       0.00009405       0.00285644       0.03378251
Pt       4.21082089       4.05186400      24.58417379        2       0.00000119       0.00000983       0.03461947
Pt       7.01803504       4.05186405      24.58417405        2      -0.00066509       0.00244270       0.03422751
Pt       2.80721281       6.48298343      24.58417366        2      -0.00175939      -0.00175850       0.03426608
Pt       5.61442797       6.48298326      24.58417386        2       0.00240835      -0.00145082       0.03380762
Pt       8.42164223       6.48298340      24.58417377        2      -0.00000521       0.00002414       0.03413033
Pt      -0.00008755      -0.00001963      26.91605810        1      -0.00009282       0.00141007      -0.00126136
Pt       2.80802494      -0.00026263      26.91720137        1      -0.00424334       0.00236031      -0.00587382
Pt       5.61378072      -0.00053762      26.91720442        1       0.00415323       0.00248897      -0.00586754
Pt       1.40369408       2.43107202      26.91603225        1      -0.00115752      -0.00075657      -0.00111236
Pt       4.21096636       2.43134234      26.91648016        1      -0.00073009      -0.00110750      -0.00363411
Pt       7.01804634       2.43122606      26.91603475        1       0.00123924      -0.00062395      -0.00111465
Pt       2.80732145       4.86203748      26.91647163        1      -0.00057776       0.00114595      -0.00364471
Pt       5.61418240       4.86227924      26.91647157        1       0.00129764      -0.00010446      -0.00365330
Pt       8.42148255       4.86309037      26.91718515        1       0.00010120      -0.00488060      -0.00581650
C        8.42161442       1.62062630      32.25813034        0       0.00007758      -0.00021572      -0.01418853
O        8.42166484       1.62069723      33.43924750        0      -0.00003858       0.00010926       0.01211608
O        8.42157613       1.62052080      31.07761921        0      -0.00003929       0.00010759       0.00227192
