39
Lattice="8.421641763931781 0.0 0.0 4.2108208819658905 7.293355709136913 0.0 0.0 0.0 46.87624170604845" Properties=species:S:1:pos:R:3:tags:I:1:forces:R:3 charge=0 spin=0 energy=-209.36633681391675 free_energy=-209.36633681391675 stress="0.010483105666935444 4.973969014443469e-10 -1.7073647384791002e-08 4.973969014443469e-10 0.010483159683644772 1.7248281380943808e-07 -1.7073647384791002e-08 1.7248281380943808e-07 -7.646915764780715e-05" pbc="T T T"
Pt      -0.00000001       0.00000022      19.95723425        4       0.00010626       0.00065079       0.01519621
Pt       2.80721397      -0.00000009      19.95723437        4       0.00004848       0.00013875       0.01522812
Pt       5.61442779      -0.00000006      19.95723442        4       0.00009171      -0.00010700       0.01521898
Pt       1.40360720       2.43111836      19.95723428        4      -0.00061978      -0.00023524       0.01519196
Pt       4.21082081       2.43111834      19.95723435        4       0.00005824       0.00060456       0.01572014
Pt       7.01803481       2.43111842      19.95723424        4       0.00051316      -0.00041510       0.01519158
Pt       2.80721405       4.86223723      19.95723396        4       0.00049152      -0.00035512       0.01572390
Pt       5.61442805       4.86223729      19.95723414        4      -0.00055013      -0.00025633       0.01572352
Pt       8.42164141       4.86223719      19.95723428        4      -0.00014327      -0.00002727       0.01522646
Pt       1.40360726       0.81037260      22.29206791        3      -0.00028926       0.00019703      -0.04510839
Pt       4.21082130       0.81037249      22.29206785        3      -0.00020001      -0.00045639      -0.04443568
Pt       7.01803472       0.81037257      22.29206783        3       0.00030846       0.00015176      -0.04510896
Pt       2.80721450       3.24149124      22.29206777        3      -0.00037454       0.00011262      -0.04446109
Pt       5.61442762       3.24149124      22.29206789        3       0.00008864      -0.00036583      -0.04445964
Pt       8.42164156       3.24149128      22.29206809        3      -0.00002345      -0.00033451      -0.04511483
Pt       4.21082092       5.67260996      22.29206799        3       0.00026973       0.00026397      -0.04446154
Pt       7.01803487       5.67261037      22.29206782        3       0.00049287       0.00006382      -0.04443590
Pt       9.82524820       5.67261064      22.29206809        3      -0.00029940       0.00038979      -0.04444085
Pt      -0.00000052       1.62074570      24.58417379        2       0.00000526       0.00001111       0.04982902
Pt       2.80721442       1.62074548      24.58417394        2      -0.00248815       0.00639835       0.02875361
Pt       5.61442780       1.62074537      24.58417373        2       0.00227425       0.00637730       0.02785818
Pt       1.40360637       4.05186438      24.58417386        2       0.00439233      -0.00515400       0.02781890
Pt       4.21082089       4.05186400      24.58417379        2      -0.00000134       0.00000075       0.04853229
Pt       7.01803504       4.05186405      24.58417405        2      -0.00426603      -0.00534996       0.02869427
Pt       2.80721281       6.48298343      24.58417366        2       0.00677541      -0.00102967       0.02867866
Pt       5.61442797       6.48298326      24.58417386        2      -0.00665066      -0.00120045       0.02777494
Pt       8.42164223       6.48298340      24.58417377        2      -0.00000025       0.00000339       0.04217708
Pt      -0.00032798      -0.00207797      26.92115980        1       0.00039088       0.01180516      -0.02564094
Pt       2.80188691       0.00272128      26.91385786        1       0.03247211      -0.01700549       0.00672723
Pt       5.61945227       0.00325448      26.91386091        1      -0.03098246      -0.01956979       0.00670560
Pt       1.40557426       2.43187199      26.92116602        1      -0.01036891      -0.00555077      -0.02563131
Pt       4.21080338       2.42658880      26.91591710        1      -0.00003133       0.03114713      -0.00251882
Pt       7.01640441       2.43244737      26.92116609        1       0.00997321      -0.00625667      -0.02566373
Pt       2.80330270       4.86452487      26.91590834        1       0.02700280      -0.01557115      -0.00253926
Pt       5.61836537       4.86449060      26.91590511        1      -0.02696596      -0.01565213      -0.00253825
Pt       8.42195486       4.85626699      26.91385826        1      -0.00149965       0.03657559       0.00667441
C        8.42163796       1.62074335      32.06823923        0       0.00000493      -0.00000140       0.00451668
O        8.42164432       1.62074854      33.24956653        0      -0.00000248       0.00000144      -0.01203508
O        8.42163193       1.62073760      30.88752416        0      -0.00000338       0.00000097       0.02543233
