39
Lattice="8.421641763931781 0.0 0.0 4.2108208819658905 7.293355709136913 0.0 0.0 0.0 46.87624170604845" Properties=species:S:1:pos:R:3:tags:I:1:forces:R:3 charge=0 spin=0 energy=-209.36765669917065 free_energy=-209.36765669917065 stress="0.01038447767496109 1.2675134553052914e-10 -5.478123288327197e-09 1.2675134553052914e-10 0.01038450188934803 -6.759604076478354e-08 -5.478123288327197e-09 -6.759604076478354e-08 -0.00026239443104714155" pbc="T T T"
Pt      -0.00000001       0.00000022      19.95723425        4       0.00004798      -0.00001271       0.01509211
Pt       2.80721397      -0.00000009      19.95723437        4      -0.00026301       0.00035764       0.01508919
Pt       5.61442779      -0.00000006      19.95723442        4       0.00043577       0.00005523       0.01508166
Pt       1.40360720       2.43111836      19.95723428        4      -0.00001413       0.00004541       0.01509080
Pt       4.21082081       2.43111834      19.95723435        4       0.00013581      -0.00048394       0.01549387
Pt       7.01803481       2.43111842      19.95723424        4      -0.00003330      -0.00003225       0.01509179
Pt       2.80721405       4.86223723      19.95723396        4      -0.00049022       0.00012276       0.01550100
Pt       5.61442805       4.86223729      19.95723414        4       0.00035557       0.00035540       0.01550057
Pt       8.42164141       4.86223719      19.95723428        4      -0.00017510      -0.00040840       0.01509491
Pt       1.40360726       0.81037260      22.29206791        3       0.00036982       0.00022617      -0.04344653
Pt       4.21082130       0.81037249      22.29206785        3      -0.00042293       0.00031879      -0.04302689
Pt       7.01803472       0.81037257      22.29206783        3       0.00001094      -0.00043675      -0.04344241
Pt       2.80721450       3.24149124      22.29206777        3       0.00034208       0.00035205      -0.04678660
Pt       5.61442762       3.24149124      22.29206789        3      -0.00047620       0.00013080      -0.04677972
Pt       8.42164156       3.24149128      22.29206809        3      -0.00037792       0.00021495      -0.04343495
Pt       4.21082092       5.67260996      22.29206799        3       0.00012593      -0.00047573      -0.04678435
Pt       7.01803487       5.67261037      22.29206782        3      -0.00006653      -0.00051790      -0.04301504
Pt       9.82524820       5.67261064      22.29206809        3       0.00048737       0.00019446      -0.04302005
Pt      -0.00000052       1.62074570      24.58417379        2       0.00000230       0.00000722       0.00257504
Pt       2.80721442       1.62074548      24.58417394        2      -0.00519832      -0.00666023       0.01501942
Pt       5.61442780       1.62074537      24.58417373        2       0.00535332      -0.00668584       0.01522117
Pt       1.40360637       4.05186438      24.58417386        2      -0.00846177      -0.00128847       0.01517150
Pt       4.21082089       4.05186400      24.58417379        2       0.00000897       0.00001236      -0.01683872
Pt       7.01803504       4.05186405      24.58417405        2       0.00836838      -0.00116703       0.01497849
Pt       2.80721281       6.48298343      24.58417366        2      -0.00316965       0.00783100       0.01498243
Pt       5.61442797       6.48298326      24.58417386        2       0.00311647       0.00798068       0.01519239
Pt       8.42164223       6.48298340      24.58417377        2      -0.00001214      -0.00000934       0.01497075
Pt      -0.00042240       0.00310920      26.91350490        1       0.00143986      -0.01511261       0.00901170
Pt       2.81042936      -0.00203311      26.91564705        1      -0.01998797       0.01241867       0.00251252
Pt       5.61105289      -0.00175549      26.91564369        1       0.02075779       0.01105585       0.00254168
Pt       1.40113108       2.42920050      26.91350978        1       0.01236835       0.00879159       0.00901757
Pt       4.21061346       2.43318246      26.90628090        1       0.00093689      -0.01929957       0.04274950
Pt       7.02093483       2.42992934      26.91351033        1      -0.01381512       0.00630017       0.00901849
Pt       2.80909494       4.86138763      26.90627763        1      -0.01713729       0.00885429       0.04275864
Pt       5.61275251       4.86102641      26.90628485        1       0.01621757       0.01047882       0.04272126
Pt       8.42180033       4.86603283      26.91564546        1      -0.00077965      -0.02351229       0.00254603
C        8.42164247       1.62074521      32.17119653        0       0.00000544       0.00001395       0.02269850
O        8.42163895       1.62074332      33.35238469        0      -0.00000260      -0.00000685       0.00561423
O        8.42164692       1.62074907      30.99092340        0      -0.00000304      -0.00000796      -0.01976203
