39
Lattice="8.421641763931781 0.0 0.0 4.2108208819658905 7.293355709136913 0.0 0.0 0.0 46.87624170604845" Properties=species:S:1:pos:R:3:tags:I:1:forces:R:3 charge=0 spin=0 energy=-209.36888407801587 free_energy=-209.36888407801587 stress="0.010478443466126919 -2.0865931205094057e-09 4.268292386200301e-10 -2.0865931205094057e-09 0.010478396899998188 -5.887867970955085e-09 4.268292386200301e-10 -5.887867970955085e-09 -7.974162872415036e-05" pbc="T T T"
Pt      -0.00000001       0.00000022      19.95723425        4       0.00008552       0.00005527       0.01513196
Pt       2.80721397      -0.00000009      19.95723437        4      -0.00003524       0.00024997       0.01518662
Pt       5.61442779      -0.00000006      19.95723442        4       0.00023010      -0.00009061       0.01517761
Pt       1.40360720       2.43111836      19.95723428        4      -0.00009246       0.00004216       0.01513304
Pt       4.21082081       2.43111834      19.95723435        4       0.00009429      -0.00005415       0.01558100
Pt       7.01803481       2.43111842      19.95723424        4       0.00000854      -0.00010185       0.01513299
Pt       2.80721405       4.86223723      19.95723396        4      -0.00009439      -0.00005723       0.01558333
Pt       5.61442805       4.86223729      19.95723414        4       0.00000146       0.00010253       0.01558304
Pt       8.42164141       4.86223719      19.95723428        4      -0.00019678      -0.00015689       0.01518989
Pt       1.40360726       0.81037260      22.29206791        3      -0.00031838       0.00031228      -0.04584100
Pt       4.21082130       0.81037249      22.29206785        3      -0.00038352       0.00019464      -0.04305332
Pt       7.01803472       0.81037257      22.29206783        3       0.00043461       0.00010608      -0.04583888
Pt       2.80721450       3.24149124      22.29206777        3      -0.00017013       0.00006952      -0.04604269
Pt       5.61442762       3.24149124      22.29206789        3       0.00002167      -0.00017645      -0.04603783
Pt       8.42164156       3.24149128      22.29206809        3      -0.00011613      -0.00043059      -0.04584400
Pt       4.21082092       5.67260996      22.29206799        3       0.00013949       0.00009910      -0.04604726
Pt       7.01803487       5.67261037      22.29206782        3       0.00001580      -0.00043313      -0.04306066
Pt       9.82524820       5.67261064      22.29206809        3       0.00036561       0.00021318      -0.04306382
Pt      -0.00000052       1.62074570      24.58417379        2       0.00000490      -0.00000948       0.02597411
Pt       2.80721442       1.62074548      24.58417394        2       0.00244257      -0.00063622       0.03428074
Pt       5.61442780       1.62074537      24.58417373        2      -0.00250141      -0.00135406       0.03383143
Pt       1.40360637       4.05186438      24.58417386        2       0.00009489       0.00285278       0.03378376
Pt       4.21082089       4.05186400      24.58417379        2       0.00000073       0.00001198       0.03461314
Pt       7.01803504       4.05186405      24.58417405        2      -0.00066466       0.00243981       0.03423050
Pt       2.80721281       6.48298343      24.58417366        2      -0.00175697      -0.00175635       0.03427014
Pt       5.61442797       6.48298326      24.58417386        2       0.00240476      -0.00144929       0.03381154
Pt       8.42164223       6.48298340      24.58417377        2      -0.00000364       0.00002552       0.03410714
Pt      -0.00008768      -0.00001890      26.91606021        1      -0.00009181       0.00141067      -0.00127216
Pt       2.80802938      -0.00026510      26.91720018        1      -0.00427829       0.00238164      -0.00586131
Pt       5.61377634      -0.00053981      26.91720310        1       0.00418759       0.00251087      -0.00586167
Pt       1.40369348       2.43107239      26.91603413        1      -0.00115903      -0.00076041      -0.00112103
Pt       4.21096659       2.43134360      26.91647996        1      -0.00072979      -0.00111038      -0.00362635
Pt       7.01804689       2.43122600      26.91603685        1       0.00124159      -0.00062523      -0.00112536
Pt       2.80732213       4.86203745      26.91647123        1      -0.00057735       0.00114744      -0.00364431
Pt       5.61418184       4.86227912      26.91647075        1       0.00129946      -0.00010186      -0.00365319
Pt       8.42148288       4.86309644      26.91718358        1       0.00009609      -0.00492261      -0.00580367
C        8.42161116       1.62062464      32.25813692        0       0.00009556      -0.00021722      -0.01468719
O        8.42166740       1.62069666      33.43925230        0      -0.00004719       0.00011039       0.01246544
O        8.42156993       1.62051787      31.07762538        0      -0.00004800       0.00010842       0.00241848
