39
Lattice="8.421641763931781 0.0 0.0 4.2108208819658905 7.293355709136913 0.0 0.0 0.0 46.87624170604845" Properties=species:S:1:pos:R:3:tags:I:1:forces:R:3 charge=0 spin=0 energy=-209.36888503169018 free_energy=-209.36888503169018 stress="0.01047845371067524 6.171864130877225e-10 -4.0439032678030173e-10 6.171864130877225e-10 0.010478414595127106 -2.556832967570699e-09 -4.0439032678030173e-10 -2.556832967570699e-09 -7.981401722645387e-05" pbc="T T T"
Pt      -0.00000001       0.00000022      19.95723425        4       0.00008563       0.00005517       0.01513204
Pt       2.80721397      -0.00000009      19.95723437        4      -0.00003536       0.00025014       0.01518666
Pt       5.61442779      -0.00000006      19.95723442        4       0.00022987      -0.00009049       0.01517752
Pt       1.40360720       2.43111836      19.95723428        4      -0.00009241       0.00004224       0.01513299
Pt       4.21082081       2.43111834      19.95723435        4       0.00009442      -0.00005415       0.01558111
Pt       7.01803481       2.43111842      19.95723424        4       0.00000811      -0.00010164       0.01513312
Pt       2.80721405       4.86223723      19.95723396        4      -0.00009446      -0.00005718       0.01558327
Pt       5.61442805       4.86223729      19.95723414        4       0.00000147       0.00010230       0.01558289
Pt       8.42164141       4.86223719      19.95723428        4      -0.00019685      -0.00015711       0.01518980
Pt       1.40360726       0.81037260      22.29206791        3      -0.00031834       0.00031227      -0.04584156
Pt       4.21082130       0.81037249      22.29206785        3      -0.00038385       0.00019451      -0.04305293
Pt       7.01803472       0.81037257      22.29206783        3       0.00043477       0.00010609      -0.04583901
Pt       2.80721450       3.24149124      22.29206777        3      -0.00017054       0.00006942      -0.04604181
Pt       5.61442762       3.24149124      22.29206789        3       0.00002179      -0.00017677      -0.04603756
Pt       8.42164156       3.24149128      22.29206809        3      -0.00011592      -0.00043081      -0.04584429
Pt       4.21082092       5.67260996      22.29206799        3       0.00013920       0.00009934      -0.04604705
Pt       7.01803487       5.67261037      22.29206782        3       0.00001564      -0.00043315      -0.04306096
Pt       9.82524820       5.67261064      22.29206809        3       0.00036583       0.00021322      -0.04306461
Pt      -0.00000052       1.62074570      24.58417379        2       0.00000538      -0.00001023       0.02597703
Pt       2.80721442       1.62074548      24.58417394        2       0.00244473      -0.00063451       0.03428180
Pt       5.61442780       1.62074537      24.58417373        2      -0.00250271      -0.00135293       0.03383351
Pt       1.40360637       4.05186438      24.58417386        2       0.00009466       0.00285322       0.03378278
Pt       4.21082089       4.05186400      24.58417379        2       0.00000120       0.00001059       0.03461564
Pt       7.01803504       4.05186405      24.58417405        2      -0.00066543       0.00243958       0.03422980
Pt       2.80721281       6.48298343      24.58417366        2      -0.00175746      -0.00175693       0.03426965
Pt       5.61442797       6.48298326      24.58417386        2       0.00240530      -0.00144933       0.03381012
Pt       8.42164223       6.48298340      24.58417377        2      -0.00000335       0.00002545       0.03411128
Pt      -0.00008744      -0.00001979      26.91606012        1      -0.00009120       0.00141854      -0.00127103
Pt       2.80802882      -0.00026438      26.91720042        1      -0.00427292       0.00237765      -0.00586124
Pt       5.61377782      -0.00053899      26.91720306        1       0.00418174       0.00250496      -0.00586245
Pt       1.40369460       2.43107274      26.91603440        1      -0.00116402      -0.00076334      -0.00112385
Pt       4.21096661       2.43134351      26.91648015        1      -0.00072944      -0.00110912      -0.00363385
Pt       7.01804617       2.43122652      26.91603733        1       0.00124537      -0.00062856      -0.00112506
Pt       2.80732205       4.86203769      26.91647061        1      -0.00057551       0.00114727      -0.00364407
Pt       5.61418233       4.86227914      26.91647127        1       0.00129774      -0.00010197      -0.00365205
Pt       8.42148310       4.86309488      26.91718366        1       0.00009688      -0.00491403      -0.00580490
C        8.42161061       1.62062458      32.25814472        0       0.00008286      -0.00022576      -0.01452032
O        8.42166730       1.62069389      33.43926044        0      -0.00004083       0.00011383       0.01247757
O        8.42156751       1.62051906      31.07763532        0      -0.00004191       0.00011225       0.00224020
