39
Lattice="8.421641763931781 0.0 0.0 4.2108208819658905 7.293355709136913 0.0 0.0 0.0 46.87624170604845" Properties=species:S:1:pos:R:3:tags:I:1:forces:R:3 charge=0 spin=0 energy=-209.36765669917065 free_energy=-209.36765669917065 stress="0.010384510271251202 -2.23981078129043e-09 -5.717308404484811e-09 -2.23981078129043e-09 0.01038453634828329 -6.887852777026637e-08 -5.717308404484811e-09 -6.887852777026637e-08 -0.00026249830261804163" pbc="T T T"
Pt      -0.00000001       0.00000022      19.95723425        4       0.00004819      -0.00001236       0.01509222
Pt       2.80721397      -0.00000009      19.95723437        4      -0.00026273       0.00035745       0.01508923
Pt       5.61442779      -0.00000006      19.95723442        4       0.00043560       0.00005503       0.01508170
Pt       1.40360720       2.43111836      19.95723428        4      -0.00001440       0.00004546       0.01509088
Pt       4.21082081       2.43111834      19.95723435        4       0.00013578      -0.00048345       0.01549413
Pt       7.01803481       2.43111842      19.95723424        4      -0.00003261      -0.00003216       0.01509182
Pt       2.80721405       4.86223723      19.95723396        4      -0.00048995       0.00012258       0.01550114
Pt       5.61442805       4.86223729      19.95723414        4       0.00035524       0.00035502       0.01550051
Pt       8.42164141       4.86223719      19.95723428        4      -0.00017494      -0.00040826       0.01509498
Pt       1.40360726       0.81037260      22.29206791        3       0.00036969       0.00022593      -0.04344696
Pt       4.21082130       0.81037249      22.29206785        3      -0.00042261       0.00031815      -0.04302722
Pt       7.01803472       0.81037257      22.29206783        3       0.00001088      -0.00043681      -0.04344391
Pt       2.80721450       3.24149124      22.29206777        3       0.00034174       0.00035160      -0.04678467
Pt       5.61442762       3.24149124      22.29206789        3      -0.00047574       0.00013031      -0.04677874
Pt       8.42164156       3.24149128      22.29206809        3      -0.00037802       0.00021446      -0.04343582
Pt       4.21082092       5.67260996      22.29206799        3       0.00012603      -0.00047588      -0.04678349
Pt       7.01803487       5.67261037      22.29206782        3      -0.00006579      -0.00051733      -0.04301476
Pt       9.82524820       5.67261064      22.29206809        3       0.00048759       0.00019457      -0.04302015
Pt      -0.00000052       1.62074570      24.58417379        2       0.00000441       0.00000643       0.00261069
Pt       2.80721442       1.62074548      24.58417394        2      -0.00520252      -0.00665401       0.01502396
Pt       5.61442780       1.62074537      24.58417373        2       0.00535454      -0.00667907       0.01521968
Pt       1.40360637       4.05186438      24.58417386        2      -0.00845869      -0.00129193       0.01518258
Pt       4.21082089       4.05186400      24.58417379        2       0.00000703       0.00001432      -0.01682057
Pt       7.01803504       4.05186405      24.58417405        2       0.00836592      -0.00117032       0.01498187
Pt       2.80721281       6.48298343      24.58417366        2      -0.00316127       0.00782774       0.01498786
Pt       5.61442797       6.48298326      24.58417386        2       0.00310814       0.00798080       0.01519688
Pt       8.42164223       6.48298340      24.58417377        2      -0.00001379      -0.00001332       0.01497505
Pt      -0.00042268       0.00310506      26.91351109        1       0.00144125      -0.01508424       0.00898006
Pt       2.81042584      -0.00203169      26.91564553        1      -0.01997391       0.01240994       0.00252007
Pt       5.61105477      -0.00175409      26.91564079        1       0.02074588       0.01104382       0.00255741
Pt       1.40113425       2.42920192      26.91351592        1       0.01234465       0.00878008       0.00898503
Pt       4.21061314       2.43318055      26.90628317        1       0.00093334      -0.01928310       0.04274227
Pt       7.02093120       2.42993112      26.91351574        1      -0.01378814       0.00628595       0.00899506
Pt       2.80909361       4.86138827      26.90628025        1      -0.01713150       0.00884742       0.04274106
Pt       5.61275375       4.86102760      26.90628651        1       0.01620390       0.01046948       0.04271356
Pt       8.42179999       4.86602885      26.91564483        1      -0.00077301      -0.02349436       0.00254211
C        8.42164289       1.62074603      32.17106093        0      -0.00000032       0.00001081       0.02104022
O        8.42163987       1.62074329      33.35223971        0       0.00000012      -0.00000517       0.00663484
O        8.42164716       1.62075035      30.99078183        0       0.00000001      -0.00000551      -0.01911072
