39
Lattice="8.421641763931781 0.0 0.0 4.2108208819658905 7.293355709136913 0.0 0.0 0.0 46.87624170604845" Properties=species:S:1:pos:R:3:tags:I:1:forces:R:3 charge=0 spin=0 energy=-209.36804675196606 free_energy=-209.36804675196606 stress="0.010483440943062305 3.1661945287808635e-10 2.7672908409215324e-09 3.1661945287808635e-10 0.0104834558442235 -5.924704993276464e-08 2.7672908409215324e-09 -5.924704993276464e-08 -7.100093353074044e-05" pbc="T T T"
Pt      -0.00000001       0.00000022      19.95723425        4       0.00015318       0.00028438       0.01501084
Pt       2.80721397      -0.00000009      19.95723437        4       0.00017291       0.00011967       0.01520691
Pt       5.61442779      -0.00000006      19.95723442        4       0.00001348      -0.00020629       0.01519635
Pt       1.40360720       2.43111836      19.95723428        4      -0.00032451      -0.00001119       0.01501402
Pt       4.21082081       2.43111834      19.95723435        4      -0.00000172       0.00067246       0.01560717
Pt       7.01803481       2.43111842      19.95723424        4       0.00017200      -0.00027216       0.01501272
Pt       2.80721405       4.86223723      19.95723396        4       0.00058266      -0.00033567       0.01560517
Pt       5.61442805       4.86223729      19.95723414        4      -0.00058012      -0.00034214       0.01560543
Pt       8.42164141       4.86223719      19.95723428        4      -0.00018826       0.00009173       0.01520611
Pt       1.40360726       0.81037260      22.29206791        3      -0.00099409       0.00041070      -0.04780857
Pt       4.21082130       0.81037249      22.29206785        3      -0.00037359      -0.00012527      -0.04312468
Pt       7.01803472       0.81037257      22.29206783        3       0.00085374       0.00065249      -0.04780614
Pt       2.80721450       3.24149124      22.29206777        3      -0.00077412      -0.00006681      -0.04420826
Pt       5.61442762       3.24149124      22.29206789        3       0.00044778      -0.00062672      -0.04420507
Pt       8.42164156       3.24149128      22.29206809        3       0.00014560      -0.00105705      -0.04780763
Pt       4.21082092       5.67260996      22.29206799        3       0.00031889       0.00070166      -0.04421778
Pt       7.01803487       5.67261037      22.29206782        3       0.00029184      -0.00025764      -0.04313363
Pt       9.82524820       5.67261064      22.29206809        3       0.00008167       0.00037400      -0.04313827
Pt      -0.00000052       1.62074570      24.58417379        2      -0.00000503       0.00000541       0.02646527
Pt       2.80721442       1.62074548      24.58417394        2       0.01082066       0.00604370       0.02976979
Pt       5.61442780       1.62074537      24.58417373        2      -0.01072269       0.00609001       0.02862160
Pt       1.40360637       4.05186438      24.58417386        2       0.01064684       0.00623993       0.02858480
Pt       4.21082089       4.05186400      24.58417379        2      -0.00000349      -0.00001939       0.06777044
Pt       7.01803504       4.05186405      24.58417405        2      -0.01062867       0.00635117       0.02972249
Pt       2.80721281       6.48298343      24.58417366        2      -0.00018575      -0.01240113       0.02969977
Pt       5.61442797       6.48298326      24.58417386        2       0.00008386      -0.01233201       0.02851768
Pt       8.42164223       6.48298340      24.58417377        2       0.00000153      -0.00000069       0.04253423
Pt      -0.00056683      -0.00302062      26.91446249        1       0.00131211       0.01243921       0.00933795
Pt       2.80194940       0.00231514      26.91379900        1       0.03585384      -0.01700691       0.00619407
Pt       5.61907526       0.00339029      26.91380761        1      -0.03272123      -0.02245120       0.00618088
Pt       1.40649935       2.43212824      26.91447056        1      -0.01137081      -0.00500708       0.00931679
Pt       4.21103213       2.42835628      26.92246933        1      -0.00134600       0.02295428      -0.02956565
Pt       7.01570818       2.43312193      26.91447369        1       0.01005736      -0.00739918       0.00932680
Pt       2.80472597       4.86343097      26.92245850        1       0.02052271      -0.01033158      -0.02951162
Pt       5.61670989       4.86379924      26.92245234        1      -0.01920161      -0.01267925      -0.02947914
Pt       8.42226334       4.85652364      26.91380179        1      -0.00311149       0.03949946       0.00623039
C        8.42164105       1.62074750      32.27877183        0       0.00000579       0.00000171      -0.03076866
O        8.42164037       1.62074272      33.45976028        0      -0.00000291      -0.00000147       0.02424446
O        8.42164345       1.62075255      31.09823318        0      -0.00000270      -0.00000119       0.00479312
