39
Lattice="8.421641763931781 0.0 0.0 4.2108208819658905 7.293355709136913 0.0 0.0 0.0 46.87624170604845" Properties=species:S:1:pos:R:3:tags:I:1:forces:R:3 charge=0 spin=0 energy=-209.36888503169018 free_energy=-209.36888503169018 stress="0.01047846581786871 9.815606660801279e-11 2.1646116010742844e-09 9.815606660801279e-11 0.010478425770998001 -2.500735618582439e-09 2.1646116010742844e-09 -2.500735618582439e-09 -7.979077781783417e-05" pbc="T T T"
Pt      -0.00000001       0.00000022      19.95723425        4       0.00008560       0.00005544       0.01513191
Pt       2.80721397      -0.00000009      19.95723437        4      -0.00003540       0.00025010       0.01518649
Pt       5.61442779      -0.00000006      19.95723442        4       0.00023015      -0.00009042       0.01517748
Pt       1.40360720       2.43111836      19.95723428        4      -0.00009229       0.00004202       0.01513310
Pt       4.21082081       2.43111834      19.95723435        4       0.00009429      -0.00005412       0.01558121
Pt       7.01803481       2.43111842      19.95723424        4       0.00000843      -0.00010179       0.01513325
Pt       2.80721405       4.86223723      19.95723396        4      -0.00009433      -0.00005718       0.01558342
Pt       5.61442805       4.86223729      19.95723414        4       0.00000150       0.00010244       0.01558325
Pt       8.42164141       4.86223719      19.95723428        4      -0.00019671      -0.00015708       0.01518986
Pt       1.40360726       0.81037260      22.29206791        3      -0.00031840       0.00031204      -0.04584128
Pt       4.21082130       0.81037249      22.29206785        3      -0.00038342       0.00019446      -0.04305391
Pt       7.01803472       0.81037257      22.29206783        3       0.00043484       0.00010592      -0.04583854
Pt       2.80721450       3.24149124      22.29206777        3      -0.00016977       0.00006964      -0.04604296
Pt       5.61442762       3.24149124      22.29206789        3       0.00002175      -0.00017649      -0.04603767
Pt       8.42164156       3.24149128      22.29206809        3      -0.00011626      -0.00043059      -0.04584361
Pt       4.21082092       5.67260996      22.29206799        3       0.00013926       0.00009928      -0.04604704
Pt       7.01803487       5.67261037      22.29206782        3       0.00001550      -0.00043275      -0.04306149
Pt       9.82524820       5.67261064      22.29206809        3       0.00036538       0.00021320      -0.04306445
Pt      -0.00000052       1.62074570      24.58417379        2       0.00000456      -0.00000964       0.02598473
Pt       2.80721442       1.62074548      24.58417394        2       0.00243982      -0.00063514       0.03428473
Pt       5.61442780       1.62074537      24.58417373        2      -0.00249944      -0.00135351       0.03383439
Pt       1.40360637       4.05186438      24.58417386        2       0.00009317       0.00285100       0.03378971
Pt       4.21082089       4.05186400      24.58417379        2       0.00000046       0.00001202       0.03461450
Pt       7.01803504       4.05186405      24.58417405        2      -0.00066246       0.00243833       0.03423622
Pt       2.80721281       6.48298343      24.58417366        2      -0.00175539      -0.00175483       0.03427380
Pt       5.61442797       6.48298326      24.58417386        2       0.00240322      -0.00144786       0.03381366
Pt       8.42164223       6.48298340      24.58417377        2      -0.00000323       0.00002360       0.03411052
Pt      -0.00008787      -0.00001949      26.91606157        1      -0.00009280       0.00141761      -0.00127979
Pt       2.80802927      -0.00026506      26.91719960        1      -0.00427914       0.00238125      -0.00586137
Pt       5.61377615      -0.00053958      26.91720326        1       0.00418815       0.00250873      -0.00586302
Pt       1.40369379       2.43107258      26.91603585        1      -0.00116383      -0.00076116      -0.00113348
Pt       4.21096682       2.43134312      26.91647998        1      -0.00073067      -0.00110840      -0.00362580
Pt       7.01804590       2.43122636      26.91603896        1       0.00124828      -0.00062608      -0.00113613
Pt       2.80732175       4.86203782      26.91647115        1      -0.00057638       0.00114789      -0.00364463
Pt       5.61418219       4.86227924      26.91647109        1       0.00129982      -0.00010350      -0.00365289
Pt       8.42148268       4.86309628      26.91718425        1       0.00009587      -0.00492473      -0.00581288
C        8.42161400       1.62062424      32.25815058        0       0.00007769      -0.00022148      -0.01452018
O        8.42166531       1.62069573      33.43926642        0      -0.00003865       0.00011181       0.01247494
O        8.42157451       1.62051725      31.07764175        0      -0.00003930       0.00011004       0.00224418
