39
Lattice="8.421641763931781 0.0 0.0 4.2108208819658905 7.293355709136913 0.0 0.0 0.0 46.87624170604845" Properties=species:S:1:pos:R:3:tags:I:1:forces:R:3 charge=0 spin=0 energy=-209.36765860651929 free_energy=-209.36765860651929 stress="0.01038452610373497 -3.5998994896146996e-09 -6.920789719089271e-09 -3.5998994896146996e-09 0.010384549386799335 -6.950109110448466e-08 -6.920789719089271e-09 -6.950109110448466e-08 -0.00026224085013382137" pbc="T T T"
Pt      -0.00000001       0.00000022      19.95723425        4       0.00004826      -0.00001182       0.01509213
Pt       2.80721397      -0.00000009      19.95723437        4      -0.00026291       0.00035743       0.01508944
Pt       5.61442779      -0.00000006      19.95723442        4       0.00043549       0.00005519       0.01508168
Pt       1.40360720       2.43111836      19.95723428        4      -0.00001472       0.00004506       0.01509110
Pt       4.21082081       2.43111834      19.95723435        4       0.00013562      -0.00048321       0.01549415
Pt       7.01803481       2.43111842      19.95723424        4      -0.00003232      -0.00003260       0.01509203
Pt       2.80721405       4.86223723      19.95723396        4      -0.00048961       0.00012232       0.01550112
Pt       5.61442805       4.86223729      19.95723414        4       0.00035507       0.00035486       0.01550066
Pt       8.42164141       4.86223719      19.95723428        4      -0.00017492      -0.00040855       0.01509498
Pt       1.40360726       0.81037260      22.29206791        3       0.00036983       0.00022603      -0.04344503
Pt       4.21082130       0.81037249      22.29206785        3      -0.00042194       0.00031734      -0.04302952
Pt       7.01803472       0.81037257      22.29206783        3       0.00001012      -0.00043661      -0.04344226
Pt       2.80721450       3.24149124      22.29206777        3       0.00034197       0.00035172      -0.04678330
Pt       5.61442762       3.24149124      22.29206789        3      -0.00047581       0.00012991      -0.04677705
Pt       8.42164156       3.24149128      22.29206809        3      -0.00037802       0.00021519      -0.04343411
Pt       4.21082092       5.67260996      22.29206799        3       0.00012562      -0.00047619      -0.04678231
Pt       7.01803487       5.67261037      22.29206782        3      -0.00006493      -0.00051696      -0.04301836
Pt       9.82524820       5.67261064      22.29206809        3       0.00048696       0.00019498      -0.04302333
Pt      -0.00000052       1.62074570      24.58417379        2       0.00000473       0.00000843       0.00263263
Pt       2.80721442       1.62074548      24.58417394        2      -0.00521137      -0.00664838       0.01502678
Pt       5.61442780       1.62074537      24.58417373        2       0.00536388      -0.00667200       0.01522312
Pt       1.40360637       4.05186438      24.58417386        2      -0.00845526      -0.00130417       0.01518175
Pt       4.21082089       4.05186400      24.58417379        2       0.00000779       0.00001426      -0.01681914
Pt       7.01803504       4.05186405      24.58417405        2       0.00836411      -0.00118203       0.01498381
Pt       2.80721281       6.48298343      24.58417366        2      -0.00315381       0.00783233       0.01498851
Pt       5.61442797       6.48298326      24.58417386        2       0.00309981       0.00798401       0.01519676
Pt       8.42164223       6.48298340      24.58417377        2      -0.00001494      -0.00001037       0.01497660
Pt      -0.00042276       0.00310654      26.91351771        1       0.00144084      -0.01509030       0.00895786
Pt       2.81042225      -0.00202984      26.91564398        1      -0.01995220       0.01240140       0.00252646
Pt       5.61105790      -0.00175213      26.91563884        1       0.02072836       0.01103681       0.00256284
Pt       1.40113326       2.42920160      26.91352348        1       0.01235075       0.00878203       0.00895354
Pt       4.21061321       2.43317872      26.90628112        1       0.00093415      -0.01926959       0.04274835
Pt       7.02093268       2.42993076      26.91352356        1      -0.01379603       0.00628974       0.00896346
Pt       2.80909146       4.86138976      26.90627808        1      -0.01711744       0.00883875       0.04274821
Pt       5.61275571       4.86102900      26.90628463        1       0.01619183       0.01046175       0.04271850
Pt       8.42180083       4.86602602      26.91564190        1      -0.00077918      -0.02347636       0.00255888
C        8.42164383       1.62074529      32.17101199        0      -0.00000608       0.00001190       0.02187667
O        8.42163997       1.62074325      33.35219992        0       0.00000308      -0.00000559       0.00593332
O        8.42164690       1.62074903      30.99073369        0       0.00000334      -0.00000647      -0.01924125
