39
Lattice="8.421641763931781 0.0 0.0 4.2108208819658905 7.293355709136913 0.0 0.0 0.0 46.87624170604845" Properties=species:S:1:pos:R:3:tags:I:1:forces:R:3 charge=0 spin=0 energy=-209.36765860651929 free_energy=-209.36765860651929 stress="0.010384307242929935 -2.6826063592721994e-09 -4.25161905681648e-09 -2.6826063592721994e-09 0.010384333319962025 -6.881479208686869e-08 -4.25161905681648e-09 -6.881479208686869e-08 -0.0002624154440127313" pbc="T T T"
Pt      -0.00000001       0.00000022      19.95723425        4       0.00004814      -0.00001384       0.01509137
Pt       2.80721397      -0.00000009      19.95723437        4      -0.00026363       0.00035822       0.01508889
Pt       5.61442779      -0.00000006      19.95723442        4       0.00043661       0.00005534       0.01508138
Pt       1.40360720       2.43111836      19.95723428        4      -0.00001299       0.00004588       0.01509008
Pt       4.21082081       2.43111834      19.95723435        4       0.00013592      -0.00048536       0.01549372
Pt       7.01803481       2.43111842      19.95723424        4      -0.00003417      -0.00003156       0.01509090
Pt       2.80721405       4.86223723      19.95723396        4      -0.00049176       0.00012342       0.01550059
Pt       5.61442805       4.86223729      19.95723414        4       0.00035681       0.00035631       0.01550051
Pt       8.42164141       4.86223719      19.95723428        4      -0.00017545      -0.00040931       0.01509436
Pt       1.40360726       0.81037260      22.29206791        3       0.00036972       0.00022673      -0.04344691
Pt       4.21082130       0.81037249      22.29206785        3      -0.00042309       0.00032101      -0.04302282
Pt       7.01803472       0.81037257      22.29206783        3       0.00001115      -0.00043679      -0.04344378
Pt       2.80721450       3.24149124      22.29206777        3       0.00034318       0.00035224      -0.04679095
Pt       5.61442762       3.24149124      22.29206789        3      -0.00047690       0.00013100      -0.04678380
Pt       8.42164156       3.24149128      22.29206809        3      -0.00037802       0.00021451      -0.04343526
Pt       4.21082092       5.67260996      22.29206799        3       0.00012570      -0.00047680      -0.04678958
Pt       7.01803487       5.67261037      22.29206782        3      -0.00006776      -0.00051964      -0.04301099
Pt       9.82524820       5.67261064      22.29206809        3       0.00049023       0.00019423      -0.04301552
Pt      -0.00000052       1.62074570      24.58417379        2       0.00000440       0.00000850       0.00240191
Pt       2.80721442       1.62074548      24.58417394        2      -0.00517241      -0.00667863       0.01499792
Pt       5.61442780       1.62074537      24.58417373        2       0.00532597      -0.00670627       0.01520063
Pt       1.40360637       4.05186438      24.58417386        2      -0.00846772      -0.00125513       0.01515614
Pt       4.21082089       4.05186400      24.58417379        2       0.00000867       0.00001323      -0.01685858
Pt       7.01803504       4.05186405      24.58417405        2       0.00837199      -0.00113228       0.01495663
Pt       2.80721281       6.48298343      24.58417366        2      -0.00320035       0.00781598       0.01496091
Pt       5.61442797       6.48298326      24.58417386        2       0.00314707       0.00796733       0.01517317
Pt       8.42164223       6.48298340      24.58417377        2      -0.00001252      -0.00001250       0.01493287
Pt      -0.00042173       0.00312328      26.91347587        1       0.00144098      -0.01522976       0.00917232
Pt       2.81044302      -0.00203990      26.91565084        1      -0.02006320       0.01245466       0.00250563
Pt       5.61103926      -0.00176403      26.91564739        1       0.02082886       0.01109788       0.00253456
Pt       1.40111846       2.42919397      26.91348109        1       0.01246694       0.00884850       0.00916972
Pt       4.21061298       2.43318860      26.90628014        1       0.00093678      -0.01932835       0.04274634
Pt       7.02094666       2.42992219      26.91348034        1      -0.01391325       0.00635506       0.00918074
Pt       2.80910034       4.86138457      26.90627712        1      -0.01716639       0.00886968       0.04275215
Pt       5.61274738       4.86102283      26.90628350        1       0.01624147       0.01049670       0.04271612
Pt       8.42179909       4.86604672      26.91565080        1      -0.00077143      -0.02358959       0.00253078
C        8.42164311       1.62074604      32.17190440        0      -0.00000041       0.00001010       0.02162070
O        8.42163979       1.62074407      33.35309048        0       0.00000021      -0.00000477       0.00593713
O        8.42164699       1.62074940      30.99162564        0       0.00000026      -0.00000559      -0.01908001
