39
Lattice="8.421641763931781 0.0 0.0 4.2108208819658905 7.293355709136913 0.0 0.0 0.0 46.87624170604845" Properties=species:S:1:pos:R:3:tags:I:1:forces:R:3 charge=0 spin=0 energy=-209.36804484461743 free_energy=-209.36804484461743 stress="0.010483418591320515 1.2376524249901877e-09 1.6479509423739103e-10 1.2376524249901877e-09 0.010483435355126858 -6.815605502197286e-08 1.6479509423739103e-10 -6.815605502197286e-08 -7.096031913533807e-05" pbc="T T T"
Pt      -0.00000001       0.00000022      19.95723425        4       0.00015328       0.00028451       0.01501071
Pt       2.80721397      -0.00000009      19.95723437        4       0.00017298       0.00011942       0.01520706
Pt       5.61442779      -0.00000006      19.95723442        4       0.00001359      -0.00020637       0.01519657
Pt       1.40360720       2.43111836      19.95723428        4      -0.00032453      -0.00001118       0.01501395
Pt       4.21082081       2.43111834      19.95723435        4      -0.00000161       0.00067264       0.01560736
Pt       7.01803481       2.43111842      19.95723424        4       0.00017242      -0.00027237       0.01501277
Pt       2.80721405       4.86223723      19.95723396        4       0.00058283      -0.00033549       0.01560517
Pt       5.61442805       4.86223729      19.95723414        4      -0.00058028      -0.00034190       0.01560545
Pt       8.42164141       4.86223719      19.95723428        4      -0.00018839       0.00009189       0.01520619
Pt       1.40360726       0.81037260      22.29206791        3      -0.00099387       0.00041063      -0.04780742
Pt       4.21082130       0.81037249      22.29206785        3      -0.00037345      -0.00012472      -0.04312392
Pt       7.01803472       0.81037257      22.29206783        3       0.00085340       0.00065251      -0.04780567
Pt       2.80721450       3.24149124      22.29206777        3      -0.00077361      -0.00006689      -0.04420951
Pt       5.61442762       3.24149124      22.29206789        3       0.00044706      -0.00062694      -0.04420687
Pt       8.42164156       3.24149128      22.29206809        3       0.00014515      -0.00105720      -0.04780898
Pt       4.21082092       5.67260996      22.29206799        3       0.00031917       0.00070063      -0.04421566
Pt       7.01803487       5.67261037      22.29206782        3       0.00029226      -0.00025817      -0.04313257
Pt       9.82524820       5.67261064      22.29206809        3       0.00008141       0.00037342      -0.04313801
Pt      -0.00000052       1.62074570      24.58417379        2      -0.00000321      -0.00000019       0.02644880
Pt       2.80721442       1.62074548      24.58417394        2       0.01081895       0.00603759       0.02975647
Pt       5.61442780       1.62074537      24.58417373        2      -0.01072338       0.00608402       0.02860484
Pt       1.40360637       4.05186438      24.58417386        2       0.01064816       0.00624587       0.02858160
Pt       4.21082089       4.05186400      24.58417379        2      -0.00000446      -0.00001063       0.06777404
Pt       7.01803504       4.05186405      24.58417405        2      -0.01062883       0.00635992       0.02971682
Pt       2.80721281       6.48298343      24.58417366        2      -0.00018465      -0.01240281       0.02969945
Pt       5.61442797       6.48298326      24.58417386        2       0.00008251      -0.01233492       0.02851790
Pt       8.42164223       6.48298340      24.58417377        2       0.00000103      -0.00000305       0.04253874
Pt      -0.00056672      -0.00302054      26.91446321        1       0.00131181       0.01242884       0.00933899
Pt       2.80194842       0.00231496      26.91379881        1       0.03586166      -0.01701253       0.00619377
Pt       5.61907620       0.00339005      26.91380727        1      -0.03272999      -0.02245579       0.00618098
Pt       1.40649833       2.43212778      26.91446693        1      -0.01136156      -0.00500146       0.00933712
Pt       4.21103125       2.42835468      26.92246412        1      -0.00134515       0.02296586      -0.02954301
Pt       7.01570855       2.43312139      26.91446940        1       0.01005017      -0.00739331       0.00935519
Pt       2.80472446       4.86343264      26.92246036        1       0.02053326      -0.01034037      -0.02952231
Pt       5.61671127       4.86380023      26.92245493        1      -0.01921296      -0.01268357      -0.02948898
Pt       8.42226311       4.85652219      26.91380241        1      -0.00311184       0.03951142       0.00622363
C        8.42164176       1.62074813      32.27875680        0       0.00000680      -0.00000285      -0.03026629
O        8.42163992       1.62074320      33.45974681        0      -0.00000319       0.00000173       0.02389731
O        8.42164402       1.62075278      31.09821948        0      -0.00000293       0.00000192       0.00463866
