39
Lattice="8.421641763931781 0.0 0.0 4.2108208819658905 7.293355709136913 0.0 0.0 0.0 46.87624170604845" Properties=species:S:1:pos:R:3:tags:I:1:forces:R:3 charge=0 spin=0 energy=-209.36633681391675 free_energy=-209.36633681391675 stress="0.010483123362064362 2.1305504027679945e-09 -2.0048030791031124e-08 2.1305504027679945e-09 0.010483178310096264 1.7324855150491203e-07 -2.0048030791031124e-08 1.7324855150491203e-07 -7.644868310308084e-05" pbc="T T T"
Pt      -0.00000001       0.00000022      19.95723425        4       0.00010612       0.00065071       0.01519625
Pt       2.80721397      -0.00000009      19.95723437        4       0.00004849       0.00013863       0.01522791
Pt       5.61442779      -0.00000006      19.95723442        4       0.00009172      -0.00010705       0.01521889
Pt       1.40360720       2.43111836      19.95723428        4      -0.00061996      -0.00023511       0.01519201
Pt       4.21082081       2.43111834      19.95723435        4       0.00005809       0.00060459       0.01571997
Pt       7.01803481       2.43111842      19.95723424        4       0.00051362      -0.00041513       0.01519177
Pt       2.80721405       4.86223723      19.95723396        4       0.00049139      -0.00035521       0.01572377
Pt       5.61442805       4.86223729      19.95723414        4      -0.00055010      -0.00025636       0.01572324
Pt       8.42164141       4.86223719      19.95723428        4      -0.00014340      -0.00002724       0.01522651
Pt       1.40360726       0.81037260      22.29206791        3      -0.00028903       0.00019727      -0.04510829
Pt       4.21082130       0.81037249      22.29206785        3      -0.00020005      -0.00045681      -0.04443707
Pt       7.01803472       0.81037257      22.29206783        3       0.00030869       0.00015184      -0.04510742
Pt       2.80721450       3.24149124      22.29206777        3      -0.00037502       0.00011261      -0.04446037
Pt       5.61442762       3.24149124      22.29206789        3       0.00008835      -0.00036563      -0.04446017
Pt       8.42164156       3.24149128      22.29206809        3      -0.00002359      -0.00033462      -0.04511394
Pt       4.21082092       5.67260996      22.29206799        3       0.00026981       0.00026445      -0.04446147
Pt       7.01803487       5.67261037      22.29206782        3       0.00049303       0.00006433      -0.04443682
Pt       9.82524820       5.67261064      22.29206809        3      -0.00029929       0.00038988      -0.04444119
Pt      -0.00000052       1.62074570      24.58417379        2       0.00000348       0.00001173       0.04983892
Pt       2.80721442       1.62074548      24.58417394        2      -0.00248956       0.00639942       0.02875647
Pt       5.61442780       1.62074537      24.58417373        2       0.00227745       0.00637977       0.02786428
Pt       1.40360637       4.05186438      24.58417386        2       0.00439261      -0.00515567       0.02782018
Pt       4.21082089       4.05186400      24.58417379        2      -0.00000048       0.00000074       0.04853401
Pt       7.01803504       4.05186405      24.58417405        2      -0.00426603      -0.00535442       0.02869965
Pt       2.80721281       6.48298343      24.58417366        2       0.00677648      -0.00102832       0.02868163
Pt       5.61442797       6.48298326      24.58417386        2      -0.00665326      -0.00119968       0.02777710
Pt       8.42164223       6.48298340      24.58417377        2      -0.00000012       0.00000386       0.04217942
Pt      -0.00032805      -0.00207774      26.92116197        1       0.00039284       0.01180694      -0.02565186
Pt       2.80188595       0.00272154      26.91385828        1       0.03247483      -0.01700641       0.00672655
Pt       5.61945257       0.00325469      26.91386076        1      -0.03098316      -0.01957171       0.00670501
Pt       1.40557386       2.43187202      26.92116826        1      -0.01036922      -0.00555336      -0.02563945
Pt       4.21080360       2.42658865      26.91591717        1      -0.00003234       0.03114776      -0.00251906
Pt       7.01640446       2.43244728      26.92116885        1       0.00997346      -0.00625731      -0.02568036
Pt       2.80330261       4.86452496      26.91590906        1       0.02700195      -0.01557100      -0.00253994
Pt       5.61836559       4.86449070      26.91590497        1      -0.02696746      -0.01565127      -0.00253752
Pt       8.42195477       4.85626645      26.91385806        1      -0.00150116       0.03657744       0.00667577
C        8.42163839       1.62074347      32.06822595        0      -0.00000026      -0.00000166       0.00451720
O        8.42164556       1.62074904      33.24955086        0       0.00000037       0.00000163      -0.01203559
O        8.42163151       1.62073735      30.88750853        0       0.00000040       0.00000051       0.02543428
