39
Lattice="8.421641763931781 0.0 0.0 4.2108208819658905 7.293355709136913 0.0 0.0 0.0 46.87624170604845" Properties=species:S:1:pos:R:3:tags:I:1:forces:R:3 charge=0 spin=0 energy=-209.36888884638745 free_energy=-209.36888884638745 stress="0.010478457435965538 2.1491919355298705e-09 -1.106485236768151e-09 2.1491919355298705e-09 0.010478423908352852 -5.000435621127508e-09 -1.106485236768151e-09 -5.000435621127508e-09 -7.9573284892831e-05" pbc="T T T"
Pt      -0.00000001       0.00000022      19.95723425        4       0.00008545       0.00005520       0.01513189
Pt       2.80721397      -0.00000009      19.95723437        4      -0.00003540       0.00025008       0.01518651
Pt       5.61442779      -0.00000006      19.95723442        4       0.00023007      -0.00009058       0.01517761
Pt       1.40360720       2.43111836      19.95723428        4      -0.00009237       0.00004211       0.01513308
Pt       4.21082081       2.43111834      19.95723435        4       0.00009427      -0.00005408       0.01558140
Pt       7.01803481       2.43111842      19.95723424        4       0.00000837      -0.00010164       0.01513310
Pt       2.80721405       4.86223723      19.95723396        4      -0.00009432      -0.00005732       0.01558335
Pt       5.61442805       4.86223729      19.95723414        4       0.00000133       0.00010247       0.01558295
Pt       8.42164141       4.86223719      19.95723428        4      -0.00019671      -0.00015691       0.01518989
Pt       1.40360726       0.81037260      22.29206791        3      -0.00031822       0.00031237      -0.04584139
Pt       4.21082130       0.81037249      22.29206785        3      -0.00038374       0.00019466      -0.04305343
Pt       7.01803472       0.81037257      22.29206783        3       0.00043518       0.00010576      -0.04583911
Pt       2.80721450       3.24149124      22.29206777        3      -0.00016995       0.00006927      -0.04604239
Pt       5.61442762       3.24149124      22.29206789        3       0.00002156      -0.00017671      -0.04603758
Pt       8.42164156       3.24149128      22.29206809        3      -0.00011594      -0.00043072      -0.04584387
Pt       4.21082092       5.67260996      22.29206799        3       0.00013954       0.00009906      -0.04604734
Pt       7.01803487       5.67261037      22.29206782        3       0.00001564      -0.00043292      -0.04306072
Pt       9.82524820       5.67261064      22.29206809        3       0.00036569       0.00021302      -0.04306453
Pt      -0.00000052       1.62074570      24.58417379        2       0.00000548      -0.00000918       0.02597625
Pt       2.80721442       1.62074548      24.58417394        2       0.00244444      -0.00063707       0.03428439
Pt       5.61442780       1.62074537      24.58417373        2      -0.00250340      -0.00135341       0.03383360
Pt       1.40360637       4.05186438      24.58417386        2       0.00009320       0.00285424       0.03378619
Pt       4.21082089       4.05186400      24.58417379        2       0.00000034       0.00001082       0.03461643
Pt       7.01803504       4.05186405      24.58417405        2      -0.00066392       0.00244008       0.03423210
Pt       2.80721281       6.48298343      24.58417366        2      -0.00175766      -0.00175662       0.03427097
Pt       5.61442797       6.48298326      24.58417386        2       0.00240604      -0.00144875       0.03381222
Pt       8.42164223       6.48298340      24.58417377        2      -0.00000472       0.00002415       0.03411762
Pt      -0.00008793      -0.00001924      26.91606004        1      -0.00009360       0.00141342      -0.00127235
Pt       2.80802801      -0.00026437      26.91720106        1      -0.00426754       0.00237725      -0.00587036
Pt       5.61377773      -0.00053892      26.91720383        1       0.00417771       0.00250280      -0.00586305
Pt       1.40369388       2.43107233      26.91603433        1      -0.00116129      -0.00075930      -0.00112307
Pt       4.21096678       2.43134334      26.91648071        1      -0.00073218      -0.00111018      -0.00363351
Pt       7.01804599       2.43122622      26.91603714        1       0.00124445      -0.00062694      -0.00112724
Pt       2.80732178       4.86203764      26.91647135        1      -0.00057935       0.00114725      -0.00364583
Pt       5.61418194       4.86227905      26.91647121        1       0.00129944      -0.00010213      -0.00365130
Pt       8.42148251       4.86309412      26.91718513        1       0.00010106      -0.00491057      -0.00581334
C        8.42161473       1.62062511      32.25812144        0       0.00006536      -0.00022504      -0.01434681
O        8.42166460       1.62069412      33.43923867        0      -0.00003169       0.00011404       0.01210667
O        8.42157507       1.62052016      31.07760958        0      -0.00003266       0.00011202       0.00244138
