39
Lattice="8.421641763931781 0.0 0.0 4.2108208819658905 7.293355709136913 0.0 0.0 0.0 46.87624170604845" Properties=species:S:1:pos:R:3:tags:I:1:forces:R:3 charge=0 spin=0 energy=-209.3663339528938 free_energy=-209.3663339528938 stress="0.010483123362064362 2.025202450184338e-09 -2.077060834437816e-08 2.025202450184338e-09 0.010483178310096264 1.7253790929316892e-07 -2.077060834437816e-08 1.7253790929316892e-07 -7.644636207260191e-05" pbc="T T T"
Pt      -0.00000001       0.00000022      19.95723425        4       0.00010638       0.00065072       0.01519601
Pt       2.80721397      -0.00000009      19.95723437        4       0.00004832       0.00013847       0.01522799
Pt       5.61442779      -0.00000006      19.95723442        4       0.00009184      -0.00010704       0.01521885
Pt       1.40360720       2.43111836      19.95723428        4      -0.00061992      -0.00023539       0.01519213
Pt       4.21082081       2.43111834      19.95723435        4       0.00005820       0.00060471       0.01571993
Pt       7.01803481       2.43111842      19.95723424        4       0.00051359      -0.00041497       0.01519162
Pt       2.80721405       4.86223723      19.95723396        4       0.00049151      -0.00035528       0.01572390
Pt       5.61442805       4.86223729      19.95723414        4      -0.00055003      -0.00025644       0.01572349
Pt       8.42164141       4.86223719      19.95723428        4      -0.00014343      -0.00002717       0.01522646
Pt       1.40360726       0.81037260      22.29206791        3      -0.00028915       0.00019706      -0.04510798
Pt       4.21082130       0.81037249      22.29206785        3      -0.00020010      -0.00045679      -0.04443715
Pt       7.01803472       0.81037257      22.29206783        3       0.00030829       0.00015156      -0.04510814
Pt       2.80721450       3.24149124      22.29206777        3      -0.00037521       0.00011267      -0.04446040
Pt       5.61442762       3.24149124      22.29206789        3       0.00008811      -0.00036560      -0.04445986
Pt       8.42164156       3.24149128      22.29206809        3      -0.00002385      -0.00033472      -0.04511414
Pt       4.21082092       5.67260996      22.29206799        3       0.00026943       0.00026395      -0.04446138
Pt       7.01803487       5.67261037      22.29206782        3       0.00049292       0.00006440      -0.04443683
Pt       9.82524820       5.67261064      22.29206809        3      -0.00029965       0.00038964      -0.04444189
Pt      -0.00000052       1.62074570      24.58417379        2       0.00000516       0.00001280       0.04984011
Pt       2.80721442       1.62074548      24.58417394        2      -0.00249155       0.00640051       0.02875938
Pt       5.61442780       1.62074537      24.58417373        2       0.00227801       0.00638031       0.02786483
Pt       1.40360637       4.05186438      24.58417386        2       0.00439144      -0.00515873       0.02782177
Pt       4.21082089       4.05186400      24.58417379        2       0.00000130       0.00000009       0.04853194
Pt       7.01803504       4.05186405      24.58417405        2      -0.00426624      -0.00535416       0.02870042
Pt       2.80721281       6.48298343      24.58417366        2       0.00677755      -0.00102582       0.02867868
Pt       5.61442797       6.48298326      24.58417386        2      -0.00665251      -0.00119924       0.02777754
Pt       8.42164223       6.48298340      24.58417377        2      -0.00000049       0.00000352       0.04217882
Pt      -0.00032787      -0.00207726      26.92116242        1       0.00039216       0.01180603      -0.02565107
Pt       2.80188637       0.00272161      26.91385784        1       0.03247396      -0.01700582       0.00672678
Pt       5.61945296       0.00325493      26.91386066        1      -0.03098520      -0.01956995       0.00670649
Pt       1.40557378       2.43187189      26.92116843        1      -0.01036646      -0.00555050      -0.02564940
Pt       4.21080373       2.42658874      26.91591693        1      -0.00003177       0.03114699      -0.00251893
Pt       7.01640501       2.43244733      26.92116920        1       0.00997127      -0.00625649      -0.02568017
Pt       2.80330264       4.86452513      26.91590783        1       0.02700222      -0.01557443      -0.00253131
Pt       5.61836590       4.86449086      26.91590439        1      -0.02696602      -0.01565274      -0.00253935
Pt       8.42195500       4.85626635      26.91385802        1      -0.00150082       0.03657741       0.00667558
C        8.42163753       1.62074321      32.06822709        0      -0.00000012       0.00000065       0.00518531
O        8.42164343       1.62074811      33.24955419        0       0.00000023       0.00000041      -0.01237020
O        8.42163169       1.62073778      30.88751160        0       0.00000042      -0.00000074       0.02510027
