39
Lattice="8.421641763931781 0.0 0.0 4.2108208819658905 7.293355709136913 0.0 0.0 0.0 46.87624170604845" Properties=species:S:1:pos:R:3:tags:I:1:forces:R:3 charge=0 spin=0 energy=-209.36633681391675 free_energy=-209.36633681391675 stress="0.010483096353709698 3.370389078938274e-09 -1.749127243044768e-08 3.370389078938274e-09 0.010483147576451302 1.721520135333776e-07 -1.749127243044768e-08 1.721520135333776e-07 -7.649039616808295e-05" pbc="T T T"
Pt      -0.00000001       0.00000022      19.95723425        4       0.00010628       0.00065054       0.01519591
Pt       2.80721397      -0.00000009      19.95723437        4       0.00004857       0.00013868       0.01522791
Pt       5.61442779      -0.00000006      19.95723442        4       0.00009166      -0.00010703       0.01521885
Pt       1.40360720       2.43111836      19.95723428        4      -0.00061977      -0.00023503       0.01519205
Pt       4.21082081       2.43111834      19.95723435        4       0.00005827       0.00060458       0.01572006
Pt       7.01803481       2.43111842      19.95723424        4       0.00051325      -0.00041494       0.01519158
Pt       2.80721405       4.86223723      19.95723396        4       0.00049128      -0.00035523       0.01572377
Pt       5.61442805       4.86223729      19.95723414        4      -0.00055014      -0.00025636       0.01572337
Pt       8.42164141       4.86223719      19.95723428        4      -0.00014336      -0.00002710       0.01522653
Pt       1.40360726       0.81037260      22.29206791        3      -0.00028976       0.00019731      -0.04510975
Pt       4.21082130       0.81037249      22.29206785        3      -0.00019974      -0.00045597      -0.04443532
Pt       7.01803472       0.81037257      22.29206783        3       0.00030956       0.00015201      -0.04510937
Pt       2.80721450       3.24149124      22.29206777        3      -0.00037476       0.00011254      -0.04446197
Pt       5.61442762       3.24149124      22.29206789        3       0.00008822      -0.00036609      -0.04445968
Pt       8.42164156       3.24149128      22.29206809        3      -0.00002356      -0.00033533      -0.04511528
Pt       4.21082092       5.67260996      22.29206799        3       0.00026967       0.00026401      -0.04446275
Pt       7.01803487       5.67261037      22.29206782        3       0.00049254       0.00006332      -0.04443548
Pt       9.82524820       5.67261064      22.29206809        3      -0.00029869       0.00038915      -0.04443980
Pt      -0.00000052       1.62074570      24.58417379        2       0.00000504       0.00001040       0.04981619
Pt       2.80721442       1.62074548      24.58417394        2      -0.00248263       0.00639727       0.02875118
Pt       5.61442780       1.62074537      24.58417373        2       0.00226893       0.00637374       0.02785948
Pt       1.40360637       4.05186438      24.58417386        2       0.00439227      -0.00514897       0.02781393
Pt       4.21082089       4.05186400      24.58417379        2       0.00000108      -0.00000006       0.04853672
Pt       7.01803504       4.05186405      24.58417405        2      -0.00426720      -0.00534496       0.02869109
Pt       2.80721281       6.48298343      24.58417366        2       0.00676930      -0.00103000       0.02867590
Pt       5.61442797       6.48298326      24.58417386        2      -0.00664621      -0.00120351       0.02777152
Pt       8.42164223       6.48298340      24.58417377        2       0.00000160       0.00000481       0.04217727
Pt      -0.00032782      -0.00207856      26.92115551        1       0.00039094       0.01180895      -0.02562567
Pt       2.80188752       0.00272127      26.91385867        1       0.03246986      -0.01700594       0.00672816
Pt       5.61945185       0.00325396      26.91386139        1      -0.03097926      -0.01956625       0.00669597
Pt       1.40557505       2.43187244      26.92116146        1      -0.01036905      -0.00555201      -0.02561556
Pt       4.21080384       2.42658909      26.91591769        1      -0.00003218       0.03114552      -0.00252438
Pt       7.01640410       2.43244781      26.92116223        1       0.00997364      -0.00625959      -0.02564690
Pt       2.80330324       4.86452496      26.91590947        1       0.02699911      -0.01557146      -0.00253846
Pt       5.61836573       4.86449051      26.91590599        1      -0.02696647      -0.01564986      -0.00254456
Pt       8.42195474       4.85626800      26.91385828        1      -0.00149836       0.03657274       0.00667536
C        8.42163754       1.62074315      32.06822269        0      -0.00000064       0.00000052       0.00518521
O        8.42164217       1.62074779      33.24954825        0       0.00000044       0.00000047      -0.01237308
O        8.42163239       1.62073812      30.88750902        0       0.00000012      -0.00000073       0.02509993
