39
Lattice="8.421641763931781 0.0 0.0 4.2108208819658905 7.293355709136913 0.0 0.0 0.0 46.87624170604845" Properties=species:S:1:pos:R:3:tags:I:1:forces:R:3 charge=0 spin=0 energy=-209.36633681391675 free_energy=-209.36633681391675 stress="0.01048310473561287 1.592820875195855e-09 -1.889796408249822e-08 1.592820875195855e-09 0.010483156889677048 1.7178165023779002e-07 -1.889796408249822e-08 1.7178165023779002e-07 -7.647712482139468e-05" pbc="T T T"
Pt      -0.00000001       0.00000022      19.95723425        4       0.00010627       0.00065056       0.01519589
Pt       2.80721397      -0.00000009      19.95723437        4       0.00004850       0.00013871       0.01522788
Pt       5.61442779      -0.00000006      19.95723442        4       0.00009172      -0.00010704       0.01521864
Pt       1.40360720       2.43111836      19.95723428        4      -0.00061993      -0.00023501       0.01519196
Pt       4.21082081       2.43111834      19.95723435        4       0.00005839       0.00060456       0.01572008
Pt       7.01803481       2.43111842      19.95723424        4       0.00051328      -0.00041489       0.01519158
Pt       2.80721405       4.86223723      19.95723396        4       0.00049149      -0.00035522       0.01572373
Pt       5.61442805       4.86223729      19.95723414        4      -0.00055005      -0.00025634       0.01572328
Pt       8.42164141       4.86223719      19.95723428        4      -0.00014334      -0.00002727       0.01522653
Pt       1.40360726       0.81037260      22.29206791        3      -0.00028950       0.00019691      -0.04510918
Pt       4.21082130       0.81037249      22.29206785        3      -0.00020040      -0.00045615      -0.04443599
Pt       7.01803472       0.81037257      22.29206783        3       0.00030878       0.00015175      -0.04510944
Pt       2.80721450       3.24149124      22.29206777        3      -0.00037478       0.00011254      -0.04446116
Pt       5.61442762       3.24149124      22.29206789        3       0.00008840      -0.00036573      -0.04445946
Pt       8.42164156       3.24149128      22.29206809        3      -0.00002348      -0.00033500      -0.04511438
Pt       4.21082092       5.67260996      22.29206799        3       0.00026966       0.00026413      -0.04446220
Pt       7.01803487       5.67261037      22.29206782        3       0.00049277       0.00006349      -0.04443591
Pt       9.82524820       5.67261064      22.29206809        3      -0.00029956       0.00038960      -0.04444094
Pt      -0.00000052       1.62074570      24.58417379        2       0.00000358       0.00001171       0.04982588
Pt       2.80721442       1.62074548      24.58417394        2      -0.00248439       0.00639861       0.02875331
Pt       5.61442780       1.62074537      24.58417373        2       0.00227204       0.00637875       0.02786241
Pt       1.40360637       4.05186438      24.58417386        2       0.00439254      -0.00515171       0.02781579
Pt       4.21082089       4.05186400      24.58417379        2      -0.00000029      -0.00000158       0.04853564
Pt       7.01803504       4.05186405      24.58417405        2      -0.00426617      -0.00534995       0.02869443
Pt       2.80721281       6.48298343      24.58417366        2       0.00677350      -0.00103022       0.02867575
Pt       5.61442797       6.48298326      24.58417386        2      -0.00664865      -0.00120093       0.02777179
Pt       8.42164223       6.48298340      24.58417377        2      -0.00000011       0.00000395       0.04217570
Pt      -0.00032797      -0.00207830      26.92115767        1       0.00039141       0.01180923      -0.02563418
Pt       2.80188694       0.00272131      26.91385792        1       0.03247119      -0.01700406       0.00672780
Pt       5.61945231       0.00325446      26.91386084        1      -0.03098271      -0.01956765       0.00670723
Pt       1.40557447       2.43187231      26.92116407        1      -0.01036939      -0.00555327      -0.02562391
Pt       4.21080356       2.42658864      26.91591762        1      -0.00003004       0.03114817      -0.00252696
Pt       7.01640413       2.43244760      26.92116479        1       0.00997403      -0.00625787      -0.02566390
Pt       2.80330263       4.86452506      26.91590851        1       0.02700496      -0.01557140      -0.00253916
Pt       5.61836561       4.86449088      26.91590520        1      -0.02696804      -0.01565393      -0.00253776
Pt       8.42195477       4.85626722      26.91385761        1      -0.00150104       0.03657302       0.00667670
C        8.42163806       1.62074323      32.06826169        0      -0.00000648      -0.00000077       0.00518279
O        8.42164481       1.62074846      33.24958659        0       0.00000329       0.00000096      -0.01236926
O        8.42163120       1.62073756      30.88754598        0       0.00000255      -0.00000048       0.02509874
