39
Lattice="8.421641763931781 0.0 0.0 4.2108208819658905 7.293355709136913 0.0 0.0 0.0 46.87624170604845" Properties=species:S:1:pos:R:3:tags:I:1:forces:R:3 charge=0 spin=0 energy=-209.3676595601936 free_energy=-209.3676595601936 stress="0.010384433902800083 -2.674148458226e-09 -7.32259453073425e-09 -2.674148458226e-09 0.010384460911154747 -6.712429723165769e-08 -7.32259453073425e-09 -6.712429723165769e-08 -0.0002623407053761184" pbc="T T T"
Pt      -0.00000001       0.00000022      19.95723425        4       0.00004813      -0.00001310       0.01509184
Pt       2.80721397      -0.00000009      19.95723437        4      -0.00026296       0.00035783       0.01508900
Pt       5.61442779      -0.00000006      19.95723442        4       0.00043597       0.00005515       0.01508157
Pt       1.40360720       2.43111836      19.95723428        4      -0.00001372       0.00004568       0.01509037
Pt       4.21082081       2.43111834      19.95723435        4       0.00013568      -0.00048432       0.01549398
Pt       7.01803481       2.43111842      19.95723424        4      -0.00003322      -0.00003203       0.01509177
Pt       2.80721405       4.86223723      19.95723396        4      -0.00049056       0.00012292       0.01550089
Pt       5.61442805       4.86223729      19.95723414        4       0.00035580       0.00035552       0.01550051
Pt       8.42164141       4.86223719      19.95723428        4      -0.00017515      -0.00040893       0.01509474
Pt       1.40360726       0.81037260      22.29206791        3       0.00036894       0.00022640      -0.04344664
Pt       4.21082130       0.81037249      22.29206785        3      -0.00042278       0.00031917      -0.04302508
Pt       7.01803472       0.81037257      22.29206783        3       0.00001055      -0.00043669      -0.04344362
Pt       2.80721450       3.24149124      22.29206777        3       0.00034217       0.00035180      -0.04678657
Pt       5.61442762       3.24149124      22.29206789        3      -0.00047616       0.00013058      -0.04678081
Pt       8.42164156       3.24149128      22.29206809        3      -0.00037832       0.00021473      -0.04343589
Pt       4.21082092       5.67260996      22.29206799        3       0.00012598      -0.00047654      -0.04678632
Pt       7.01803487       5.67261037      22.29206782        3      -0.00006672      -0.00051855      -0.04301386
Pt       9.82524820       5.67261064      22.29206809        3       0.00048816       0.00019455      -0.04301961
Pt      -0.00000052       1.62074570      24.58417379        2       0.00000505       0.00000662       0.00252498
Pt       2.80721442       1.62074548      24.58417394        2      -0.00518767      -0.00666222       0.01501743
Pt       5.61442780       1.62074537      24.58417373        2       0.00534062      -0.00668792       0.01521874
Pt       1.40360637       4.05186438      24.58417386        2      -0.00845805      -0.00127745       0.01517197
Pt       4.21082089       4.05186400      24.58417379        2       0.00000710       0.00001233      -0.01682785
Pt       7.01803504       4.05186405      24.58417405        2       0.00836569      -0.00115688       0.01497218
Pt       2.80721281       6.48298343      24.58417366        2      -0.00317601       0.00782182       0.01498266
Pt       5.61442797       6.48298326      24.58417386        2       0.00312207       0.00797501       0.01518996
Pt       8.42164223       6.48298340      24.58417377        2      -0.00001138      -0.00000944       0.01495375
Pt      -0.00042218       0.00311394      26.91349817        1       0.00143856      -0.01515263       0.00905568
Pt       2.81043324      -0.00203485      26.91564745        1      -0.02001012       0.01243113       0.00251641
Pt       5.61104876      -0.00175780      26.91564425        1       0.02078049       0.01106856       0.00254586
Pt       1.40112694       2.42919841      26.91350266        1       0.01240129       0.00881120       0.00905922
Pt       4.21061278       2.43318395      26.90628367        1       0.00093918      -0.01929846       0.04272944
Pt       7.02093873       2.42992718      26.91350248        1      -0.01384951       0.00631747       0.00906832
Pt       2.80909630       4.86138686      26.90628004        1      -0.01714203       0.00885705       0.04273725
Pt       5.61275125       4.86102565      26.90628602        1       0.01621604       0.01047883       0.04271082
Pt       8.42180009       4.86603750      26.91564561        1      -0.00077321      -0.02353844       0.00254891
C        8.42164286       1.62074524      32.17141872        0      -0.00000620       0.00001281       0.02050279
O        8.42163975       1.62074370      33.35259557        0       0.00000308      -0.00000636       0.00660897
O        8.42164659       1.62074871      30.99113054        0       0.00000325      -0.00000724      -0.01858383
