39
Lattice="8.421641763931781 0.0 0.0 4.2108208819658905 7.293355709136913 0.0 0.0 0.0 46.87624170604845" Properties=species:S:1:pos:R:3:tags:I:1:forces:R:3 charge=0 spin=0 energy=-209.36888789271313 free_energy=-209.36888789271313 stress="0.010478467680513859 2.548605548824412e-09 -1.953339989757552e-10 2.548605548824412e-09 0.010478425770998001 -3.052389008217915e-09 -1.953339989757552e-10 -3.052389008217915e-09 -7.946424739202484e-05" pbc="T T T"
Pt      -0.00000001       0.00000022      19.95723425        4       0.00008557       0.00005543       0.01513185
Pt       2.80721397      -0.00000009      19.95723437        4      -0.00003552       0.00025005       0.01518656
Pt       5.61442779      -0.00000006      19.95723442        4       0.00022986      -0.00009051       0.01517757
Pt       1.40360720       2.43111836      19.95723428        4      -0.00009236       0.00004197       0.01513314
Pt       4.21082081       2.43111834      19.95723435        4       0.00009417      -0.00005399       0.01558115
Pt       7.01803481       2.43111842      19.95723424        4       0.00000839      -0.00010188       0.01513310
Pt       2.80721405       4.86223723      19.95723396        4      -0.00009447      -0.00005728       0.01558346
Pt       5.61442805       4.86223729      19.95723414        4       0.00000135       0.00010243       0.01558278
Pt       8.42164141       4.86223719      19.95723428        4      -0.00019676      -0.00015716       0.01518995
Pt       1.40360726       0.81037260      22.29206791        3      -0.00031804       0.00031207      -0.04584162
Pt       4.21082130       0.81037249      22.29206785        3      -0.00038359       0.00019416      -0.04305384
Pt       7.01803472       0.81037257      22.29206783        3       0.00043481       0.00010610      -0.04583891
Pt       2.80721450       3.24149124      22.29206777        3      -0.00017007       0.00006937      -0.04604219
Pt       5.61442762       3.24149124      22.29206789        3       0.00002194      -0.00017679      -0.04603816
Pt       8.42164156       3.24149128      22.29206809        3      -0.00011602      -0.00043037      -0.04584361
Pt       4.21082092       5.67260996      22.29206799        3       0.00013924       0.00009923      -0.04604694
Pt       7.01803487       5.67261037      22.29206782        3       0.00001581      -0.00043249      -0.04306173
Pt       9.82524820       5.67261064      22.29206809        3       0.00036570       0.00021319      -0.04306490
Pt      -0.00000052       1.62074570      24.58417379        2       0.00000481      -0.00000965       0.02598299
Pt       2.80721442       1.62074548      24.58417394        2       0.00244212      -0.00063379       0.03428560
Pt       5.61442780       1.62074537      24.58417373        2      -0.00250053      -0.00135191       0.03383771
Pt       1.40360637       4.05186438      24.58417386        2       0.00009332       0.00285208       0.03378928
Pt       4.21082089       4.05186400      24.58417379        2       0.00000114       0.00001101       0.03461667
Pt       7.01803504       4.05186405      24.58417405        2      -0.00066374       0.00243770       0.03423712
Pt       2.80721281       6.48298343      24.58417366        2      -0.00175535      -0.00175540       0.03427559
Pt       5.61442797       6.48298326      24.58417386        2       0.00240323      -0.00144849       0.03381281
Pt       8.42164223       6.48298340      24.58417377        2      -0.00000297       0.00002373       0.03411421
Pt      -0.00008738      -0.00001889      26.91606178        1      -0.00009735       0.00141295      -0.00127979
Pt       2.80802876      -0.00026442      26.91720065        1      -0.00427168       0.00237773      -0.00586133
Pt       5.61377747      -0.00053882      26.91720378        1       0.00418320       0.00250206      -0.00586402
Pt       1.40369364       2.43107217      26.91603581        1      -0.00116107      -0.00075920      -0.00112928
Pt       4.21096667       2.43134348      26.91648030        1      -0.00072880      -0.00110886      -0.00363396
Pt       7.01804685       2.43122612      26.91603821        1       0.00124322      -0.00062418      -0.00113348
Pt       2.80732238       4.86203723      26.91647113        1      -0.00057994       0.00115100      -0.00364543
Pt       5.61418181       4.86227937      26.91647090        1       0.00130154      -0.00010508      -0.00365262
Pt       8.42148313       4.86309524      26.91718434        1       0.00009813      -0.00491657      -0.00581398
C        8.42161130       1.62062380      32.25818560        0       0.00009637      -0.00022802      -0.01452446
O        8.42166782       1.62069412      33.43930329        0      -0.00004729       0.00011553       0.01209352
O        8.42156840       1.62051700      31.07767385        0      -0.00004834       0.00011366       0.00262544
