39
Lattice="8.421641763931781 0.0 0.0 4.2108208819658905 7.293355709136913 0.0 0.0 0.0 46.87624170604845" Properties=species:S:1:pos:R:3:tags:I:1:forces:R:3 charge=0 spin=0 energy=-209.36888693903882 free_energy=-209.36888693903882 stress="0.010478448122739792 -4.3088554946280055e-10 9.717220361693535e-10 -4.3088554946280055e-10 0.01047840528190136 -4.25724611119449e-09 9.717220361693535e-10 -4.25724611119449e-09 -7.981646194821224e-05" pbc="T T T"
Pt      -0.00000001       0.00000022      19.95723425        4       0.00008556       0.00005531       0.01513204
Pt       2.80721397      -0.00000009      19.95723437        4      -0.00003543       0.00025009       0.01518643
Pt       5.61442779      -0.00000006      19.95723442        4       0.00023005      -0.00009055       0.01517752
Pt       1.40360720       2.43111836      19.95723428        4      -0.00009236       0.00004211       0.01513304
Pt       4.21082081       2.43111834      19.95723435        4       0.00009419      -0.00005420       0.01558109
Pt       7.01803481       2.43111842      19.95723424        4       0.00000828      -0.00010166       0.01513306
Pt       2.80721405       4.86223723      19.95723396        4      -0.00009438      -0.00005721       0.01558325
Pt       5.61442805       4.86223729      19.95723414        4       0.00000149       0.00010252       0.01558287
Pt       8.42164141       4.86223719      19.95723428        4      -0.00019678      -0.00015716       0.01518965
Pt       1.40360726       0.81037260      22.29206791        3      -0.00031823       0.00031243      -0.04584113
Pt       4.21082130       0.81037249      22.29206785        3      -0.00038371       0.00019444      -0.04305383
Pt       7.01803472       0.81037257      22.29206783        3       0.00043460       0.00010544      -0.04583787
Pt       2.80721450       3.24149124      22.29206777        3      -0.00016991       0.00006950      -0.04604270
Pt       5.61442762       3.24149124      22.29206789        3       0.00002178      -0.00017637      -0.04603723
Pt       8.42164156       3.24149128      22.29206809        3      -0.00011626      -0.00043038      -0.04584343
Pt       4.21082092       5.67260996      22.29206799        3       0.00013931       0.00009957      -0.04604694
Pt       7.01803487       5.67261037      22.29206782        3       0.00001586      -0.00043259      -0.04306138
Pt       9.82524820       5.67261064      22.29206809        3       0.00036542       0.00021329      -0.04306476
Pt      -0.00000052       1.62074570      24.58417379        2       0.00000525      -0.00001145       0.02598913
Pt       2.80721442       1.62074548      24.58417394        2       0.00244018      -0.00063566       0.03428365
Pt       5.61442780       1.62074537      24.58417373        2      -0.00249884      -0.00135161       0.03383163
Pt       1.40360637       4.05186438      24.58417386        2       0.00009294       0.00284935       0.03378388
Pt       4.21082089       4.05186400      24.58417379        2       0.00000078       0.00001050       0.03460491
Pt       7.01803504       4.05186405      24.58417405        2      -0.00066213       0.00243635       0.03423008
Pt       2.80721281       6.48298343      24.58417366        2      -0.00175188      -0.00175286       0.03427193
Pt       5.61442797       6.48298326      24.58417386        2       0.00240167      -0.00144452       0.03381305
Pt       8.42164223       6.48298340      24.58417377        2      -0.00000500       0.00002431       0.03410087
Pt      -0.00008725      -0.00001995      26.91606273        1      -0.00009542       0.00142423      -0.00128869
Pt       2.80803082      -0.00026536      26.91719917        1      -0.00428936       0.00238767      -0.00585953
Pt       5.61377578      -0.00053991      26.91720266        1       0.00419999       0.00251266      -0.00585266
Pt       1.40369474       2.43107266      26.91603684        1      -0.00116974      -0.00076598      -0.00113172
Pt       4.21096694       2.43134392      26.91647945        1      -0.00073199      -0.00111444      -0.00362461
Pt       7.01804607       2.43122658      26.91603907        1       0.00125439      -0.00063178      -0.00113636
Pt       2.80732269       4.86203741      26.91647007        1      -0.00058084       0.00115252      -0.00363657
Pt       5.61418190       4.86227879      26.91646996        1       0.00130257      -0.00010004      -0.00364159
Pt       8.42148323       4.86309740      26.91718282        1       0.00009767      -0.00493415      -0.00580314
C        8.42161018       1.62062413      32.25815265        0       0.00010154      -0.00022794      -0.01385040
O        8.42167081       1.62069357      33.43926984        0      -0.00005022       0.00011521       0.01214441
O        8.42156515       1.62051846      31.07764573        0      -0.00005103       0.00011351       0.00190228
