39
Lattice="8.421641763931781 0.0 0.0 4.2108208819658905 7.293355709136913 0.0 0.0 0.0 46.87624170604845" Properties=species:S:1:pos:R:3:tags:I:1:forces:R:3 charge=0 spin=0 energy=-209.36888884638745 free_energy=-209.36888884638745 stress="0.010478446260094643 -1.1806344790699086e-09 2.7512463418588595e-09 -1.1806344790699086e-09 0.01047840528190136 -1.5577815704048703e-09 2.7512463418588595e-09 -1.5577815704048703e-09 -7.975612970767543e-05" pbc="T T T"
Pt      -0.00000001       0.00000022      19.95723425        4       0.00008564       0.00005530       0.01513183
Pt       2.80721397      -0.00000009      19.95723437        4      -0.00003533       0.00025018       0.01518673
Pt       5.61442779      -0.00000006      19.95723442        4       0.00022983      -0.00009060       0.01517750
Pt       1.40360720       2.43111836      19.95723428        4      -0.00009238       0.00004192       0.01513299
Pt       4.21082081       2.43111834      19.95723435        4       0.00009425      -0.00005400       0.01558132
Pt       7.01803481       2.43111842      19.95723424        4       0.00000830      -0.00010165       0.01513310
Pt       2.80721405       4.86223723      19.95723396        4      -0.00009424      -0.00005721       0.01558346
Pt       5.61442805       4.86223729      19.95723414        4       0.00000134       0.00010248       0.01558306
Pt       8.42164141       4.86223719      19.95723428        4      -0.00019691      -0.00015693       0.01518972
Pt       1.40360726       0.81037260      22.29206791        3      -0.00031825       0.00031237      -0.04584172
Pt       4.21082130       0.81037249      22.29206785        3      -0.00038352       0.00019435      -0.04305347
Pt       7.01803472       0.81037257      22.29206783        3       0.00043541       0.00010572      -0.04583902
Pt       2.80721450       3.24149124      22.29206777        3      -0.00017009       0.00006931      -0.04604118
Pt       5.61442762       3.24149124      22.29206789        3       0.00002124      -0.00017636      -0.04603716
Pt       8.42164156       3.24149128      22.29206809        3      -0.00011575      -0.00043056      -0.04584418
Pt       4.21082092       5.67260996      22.29206799        3       0.00013948       0.00009943      -0.04604677
Pt       7.01803487       5.67261037      22.29206782        3       0.00001568      -0.00043307      -0.04306113
Pt       9.82524820       5.67261064      22.29206809        3       0.00036565       0.00021317      -0.04306465
Pt      -0.00000052       1.62074570      24.58417379        2       0.00000346      -0.00001095       0.02597320
Pt       2.80721442       1.62074548      24.58417394        2       0.00244626      -0.00063559       0.03427857
Pt       5.61442780       1.62074537      24.58417373        2      -0.00250372      -0.00135291       0.03383161
Pt       1.40360637       4.05186438      24.58417386        2       0.00009574       0.00285542       0.03377913
Pt       4.21082089       4.05186400      24.58417379        2       0.00000088       0.00001038       0.03461727
Pt       7.01803504       4.05186405      24.58417405        2      -0.00066536       0.00243984       0.03422936
Pt       2.80721281       6.48298343      24.58417366        2      -0.00175797      -0.00175758       0.03426781
Pt       5.61442797       6.48298326      24.58417386        2       0.00240511      -0.00144991       0.03380809
Pt       8.42164223       6.48298340      24.58417377        2      -0.00000286       0.00002497       0.03411825
Pt      -0.00008765      -0.00001977      26.91605961        1      -0.00009273       0.00141397      -0.00127044
Pt       2.80802688      -0.00026343      26.91720033        1      -0.00425882       0.00236931      -0.00586381
Pt       5.61377907      -0.00053782      26.91720428        1       0.00416686       0.00249453      -0.00586385
Pt       1.40369452       2.43107237      26.91603356        1      -0.00116220      -0.00075937      -0.00111558
Pt       4.21096659       2.43134269      26.91648007        1      -0.00072917      -0.00110560      -0.00363288
Pt       7.01804579       2.43122636      26.91603700        1       0.00124467      -0.00062476      -0.00112714
Pt       2.80732184       4.86203772      26.91647087        1      -0.00057556       0.00114765      -0.00364590
Pt       5.61418233       4.86227918      26.91647101        1       0.00129931      -0.00010458      -0.00365234
Pt       8.42148297       4.86309313      26.91718367        1       0.00009606      -0.00489896      -0.00580675
C        8.42161343       1.62062431      32.25809534        0       0.00007193      -0.00022057      -0.01400990
O        8.42166585       1.62069568      33.43921363        0      -0.00003575       0.00011118       0.01213186
O        8.42157254       1.62051761      31.07758668        0      -0.00003652       0.00010952       0.00208320
