39
Lattice="8.421641763931781 0.0 0.0 4.2108208819658905 7.293355709136913 0.0 0.0 0.0 46.87624170604845" Properties=species:S:1:pos:R:3:tags:I:1:forces:R:3 charge=0 spin=0 energy=-209.3663349065681 free_energy=-209.3663349065681 stress="0.010483100078999996 3.315672625348043e-09 -2.0334399053467678e-08 3.315672625348043e-09 0.010483152233064175 1.7068207114334655e-07 -2.0334399053467678e-08 1.7068207114334655e-07 -7.656172965653241e-05" pbc="T T T"
Pt      -0.00000001       0.00000022      19.95723425        4       0.00010623       0.00065065       0.01519610
Pt       2.80721397      -0.00000009      19.95723437        4       0.00004852       0.00013863       0.01522793
Pt       5.61442779      -0.00000006      19.95723442        4       0.00009172      -0.00010705       0.01521889
Pt       1.40360720       2.43111836      19.95723428        4      -0.00061991      -0.00023524       0.01519213
Pt       4.21082081       2.43111834      19.95723435        4       0.00005831       0.00060465       0.01572016
Pt       7.01803481       2.43111842      19.95723424        4       0.00051341      -0.00041494       0.01519165
Pt       2.80721405       4.86223723      19.95723396        4       0.00049138      -0.00035512       0.01572377
Pt       5.61442805       4.86223729      19.95723414        4      -0.00055020      -0.00025630       0.01572337
Pt       8.42164141       4.86223719      19.95723428        4      -0.00014340      -0.00002710       0.01522636
Pt       1.40360726       0.81037260      22.29206791        3      -0.00028949       0.00019701      -0.04510901
Pt       4.21082130       0.81037249      22.29206785        3      -0.00020023      -0.00045616      -0.04443569
Pt       7.01803472       0.81037257      22.29206783        3       0.00030853       0.00015180      -0.04510857
Pt       2.80721450       3.24149124      22.29206777        3      -0.00037476       0.00011254      -0.04446150
Pt       5.61442762       3.24149124      22.29206789        3       0.00008819      -0.00036574      -0.04445974
Pt       8.42164156       3.24149128      22.29206809        3      -0.00002387      -0.00033508      -0.04511461
Pt       4.21082092       5.67260996      22.29206799        3       0.00026970       0.00026383      -0.04446186
Pt       7.01803487       5.67261037      22.29206782        3       0.00049272       0.00006349      -0.04443601
Pt       9.82524820       5.67261064      22.29206809        3      -0.00029932       0.00038941      -0.04444077
Pt      -0.00000052       1.62074570      24.58417379        2       0.00000404       0.00001167       0.04982569
Pt       2.80721442       1.62074548      24.58417394        2      -0.00248594       0.00639725       0.02875104
Pt       5.61442780       1.62074537      24.58417373        2       0.00227422       0.00637514       0.02786132
Pt       1.40360637       4.05186438      24.58417386        2       0.00439241      -0.00515119       0.02781656
Pt       4.21082089       4.05186400      24.58417379        2      -0.00000024       0.00000075       0.04853179
Pt       7.01803504       4.05186405      24.58417405        2      -0.00426553      -0.00534969       0.02869370
Pt       2.80721281       6.48298343      24.58417366        2       0.00677179      -0.00102939       0.02867790
Pt       5.61442797       6.48298326      24.58417386        2      -0.00664866      -0.00120106       0.02777251
Pt       8.42164223       6.48298340      24.58417377        2       0.00000217       0.00000466       0.04217878
Pt      -0.00032763      -0.00207817      26.92115805        1       0.00039260       0.01180874      -0.02563526
Pt       2.80188744       0.00272127      26.91385802        1       0.03247087      -0.01700558       0.00672761
Pt       5.61945278       0.00325457      26.91386166        1      -0.03098306      -0.01957048       0.00669701
Pt       1.40557472       2.43187214      26.92116437        1      -0.01036970      -0.00555116      -0.02562446
Pt       4.21080388       2.42658873      26.91591672        1      -0.00003157       0.03114610      -0.00251764
Pt       7.01640454       2.43244757      26.92116510        1       0.00997439      -0.00625847      -0.02566511
Pt       2.80330312       4.86452501      26.91590823        1       0.02699778      -0.01557046      -0.00253873
Pt       5.61836585       4.86449068      26.91590428        1      -0.02696565      -0.01565095      -0.00253791
Pt       8.42195498       4.85626726      26.91385779        1      -0.00149787       0.03657419       0.00667608
C        8.42163700       1.62074332      32.06820791        0       0.00000619       0.00000072       0.00535414
O        8.42164238       1.62074828      33.24953647        0      -0.00000293       0.00000041      -0.01235891
O        8.42163160       1.62073793      30.88749509        0      -0.00000287      -0.00000043       0.02492131
