39
Lattice="8.421641763931781 0.0 0.0 4.2108208819658905 7.293355709136913 0.0 0.0 0.0 46.87624170604845" Properties=species:S:1:pos:R:3:tags:I:1:forces:R:3 charge=0 spin=0 energy=-209.36804484461743 free_energy=-209.36804484461743 stress="0.010483442805707455 2.4280103969043232e-11 4.789570517971242e-09 2.4280103969043232e-11 0.010483457706868649 -6.42438493514419e-08 4.789570517971242e-09 -6.42438493514419e-08 -7.107140845619142e-05" pbc="T T T"
Pt      -0.00000001       0.00000022      19.95723425        4       0.00015315       0.00028454       0.01501062
Pt       2.80721397      -0.00000009      19.95723437        4       0.00017291       0.00011941       0.01520666
Pt       5.61442779      -0.00000006      19.95723442        4       0.00001348      -0.00020657       0.01519676
Pt       1.40360720       2.43111836      19.95723428        4      -0.00032442      -0.00001106       0.01501391
Pt       4.21082081       2.43111834      19.95723435        4      -0.00000174       0.00067243       0.01560721
Pt       7.01803481       2.43111842      19.95723424        4       0.00017230      -0.00027216       0.01501287
Pt       2.80721405       4.86223723      19.95723396        4       0.00058267      -0.00033557       0.01560509
Pt       5.61442805       4.86223729      19.95723414        4      -0.00058012      -0.00034195       0.01560530
Pt       8.42164141       4.86223719      19.95723428        4      -0.00018824       0.00009185       0.01520583
Pt       1.40360726       0.81037260      22.29206791        3      -0.00099382       0.00041066      -0.04780810
Pt       4.21082130       0.81037249      22.29206785        3      -0.00037310      -0.00012474      -0.04312348
Pt       7.01803472       0.81037257      22.29206783        3       0.00085370       0.00065250      -0.04780579
Pt       2.80721450       3.24149124      22.29206777        3      -0.00077384      -0.00006713      -0.04420886
Pt       5.61442762       3.24149124      22.29206789        3       0.00044765      -0.00062729      -0.04420688
Pt       8.42164156       3.24149128      22.29206809        3       0.00014525      -0.00105729      -0.04781004
Pt       4.21082092       5.67260996      22.29206799        3       0.00031899       0.00070114      -0.04421642
Pt       7.01803487       5.67261037      22.29206782        3       0.00029239      -0.00025795      -0.04313388
Pt       9.82524820       5.67261064      22.29206809        3       0.00008161       0.00037369      -0.04313819
Pt      -0.00000052       1.62074570      24.58417379        2      -0.00000350      -0.00000023       0.02647670
Pt       2.80721442       1.62074548      24.58417394        2       0.01081444       0.00603853       0.02976366
Pt       5.61442780       1.62074537      24.58417373        2      -0.01071890       0.00608462       0.02861201
Pt       1.40360637       4.05186438      24.58417386        2       0.01064835       0.00624235       0.02858774
Pt       4.21082089       4.05186400      24.58417379        2      -0.00000456      -0.00001059       0.06776442
Pt       7.01803504       4.05186405      24.58417405        2      -0.01062912       0.00635489       0.02972187
Pt       2.80721281       6.48298343      24.58417366        2      -0.00018212      -0.01239939       0.02970699
Pt       5.61442797       6.48298326      24.58417386        2       0.00008042      -0.01233113       0.02852372
Pt       8.42164223       6.48298340      24.58417377        2       0.00000151      -0.00000078       0.04253332
Pt      -0.00056643      -0.00302329      26.91446725        1       0.00130874       0.01245959       0.00931844
Pt       2.80194966       0.00231438      26.91379886        1       0.03584810      -0.01700370       0.00619279
Pt       5.61907492       0.00338967      26.91380772        1      -0.03271388      -0.02244910       0.00618064
Pt       1.40650063       2.43212931      26.91447124        1      -0.01138516      -0.00501588       0.00931388
Pt       4.21103136       2.42835723      26.92246454        1      -0.00134485       0.02294767      -0.02953794
Pt       7.01570611       2.43312304      26.91447339        1       0.01007502      -0.00740909       0.00933403
Pt       2.80472674       4.86343134      26.92246005        1       0.02051273      -0.01033039      -0.02951938
Pt       5.61670908       4.86379932      26.92245469        1      -0.01919566      -0.01267570      -0.02948414
Pt       8.42226321       4.85652430      26.91380212        1      -0.00311021       0.03949293       0.00623113
C        8.42164097       1.62074794      32.27879967        0       0.00000590      -0.00000241      -0.03127489
O        8.42164029       1.62074284      33.45978515        0      -0.00000324       0.00000140       0.02458975
O        8.42164355       1.62075279      31.09826088        0      -0.00000291       0.00000173       0.00495240
