39
Lattice="8.421641763931781 0.0 0.0 4.2108208819658905 7.293355709136913 0.0 0.0 0.0 46.87624170604845" Properties=species:S:1:pos:R:3:tags:I:1:forces:R:3 charge=0 spin=0 energy=-209.36888789271313 free_energy=-209.36888789271313 stress="0.010478448122739792 1.3335070825348794e-09 2.9843094662140857e-09 1.3335070825348794e-09 0.010478409938514233 -7.267921264819677e-10 2.9843094662140857e-09 -7.267921264819677e-10 -7.966175326146185e-05" pbc="T T T"
Pt      -0.00000001       0.00000022      19.95723425        4       0.00008579       0.00005514       0.01513174
Pt       2.80721397      -0.00000009      19.95723437        4      -0.00003548       0.00024990       0.01518668
Pt       5.61442779      -0.00000006      19.95723442        4       0.00022985      -0.00009057       0.01517750
Pt       1.40360720       2.43111836      19.95723428        4      -0.00009242       0.00004207       0.01513295
Pt       4.21082081       2.43111834      19.95723435        4       0.00009410      -0.00005405       0.01558119
Pt       7.01803481       2.43111842      19.95723424        4       0.00000832      -0.00010161       0.01513297
Pt       2.80721405       4.86223723      19.95723396        4      -0.00009416      -0.00005720       0.01558338
Pt       5.61442805       4.86223729      19.95723414        4       0.00000132       0.00010247       0.01558287
Pt       8.42164141       4.86223719      19.95723428        4      -0.00019690      -0.00015704       0.01518967
Pt       1.40360726       0.81037260      22.29206791        3      -0.00031814       0.00031239      -0.04584131
Pt       4.21082130       0.81037249      22.29206785        3      -0.00038326       0.00019451      -0.04305302
Pt       7.01803472       0.81037257      22.29206783        3       0.00043522       0.00010599      -0.04583906
Pt       2.80721450       3.24149124      22.29206777        3      -0.00016963       0.00006977      -0.04604187
Pt       5.61442762       3.24149124      22.29206789        3       0.00002157      -0.00017626      -0.04603793
Pt       8.42164156       3.24149128      22.29206809        3      -0.00011543      -0.00043043      -0.04584426
Pt       4.21082092       5.67260996      22.29206799        3       0.00013958       0.00009929      -0.04604654
Pt       7.01803487       5.67261037      22.29206782        3       0.00001587      -0.00043285      -0.04306032
Pt       9.82524820       5.67261064      22.29206809        3       0.00036569       0.00021321      -0.04306462
Pt      -0.00000052       1.62074570      24.58417379        2       0.00000523      -0.00001218       0.02597169
Pt       2.80721442       1.62074548      24.58417394        2       0.00244614      -0.00063814       0.03428265
Pt       5.61442780       1.62074537      24.58417373        2      -0.00250589      -0.00135441       0.03383082
Pt       1.40360637       4.05186438      24.58417386        2       0.00009434       0.00285584       0.03378231
Pt       4.21082089       4.05186400      24.58417379        2       0.00000018       0.00000954       0.03461157
Pt       7.01803504       4.05186405      24.58417405        2      -0.00066375       0.00244329       0.03422988
Pt       2.80721281       6.48298343      24.58417366        2      -0.00175845      -0.00175749       0.03426791
Pt       5.61442797       6.48298326      24.58417386        2       0.00240716      -0.00144860       0.03381135
Pt       8.42164223       6.48298340      24.58417377        2      -0.00000460       0.00002489       0.03411982
Pt      -0.00008786      -0.00002029      26.91605891        1      -0.00009145       0.00141924      -0.00126965
Pt       2.80802753      -0.00026376      26.91720124        1      -0.00426218       0.00237311      -0.00587112
Pt       5.61377832      -0.00053844      26.91720470        1       0.00417092       0.00250049      -0.00586381
Pt       1.40369456       2.43107253      26.91603257        1      -0.00116542      -0.00076106      -0.00111227
Pt       4.21096666       2.43134399      26.91648022        1      -0.00073036      -0.00111741      -0.00363330
Pt       7.01804568       2.43122657      26.91603560        1       0.00124623      -0.00062711      -0.00111772
Pt       2.80732284       4.86203708      26.91647167        1      -0.00058443       0.00115098      -0.00364348
Pt       5.61418116       4.86227894      26.91647118        1       0.00130976      -0.00009998      -0.00365037
Pt       8.42148288       4.86309419      26.91718451        1       0.00009469      -0.00490653      -0.00581347
C        8.42161265       1.62062521      32.25816671        0       0.00007772      -0.00021954      -0.01485232
O        8.42166663       1.62069639      33.43927966        0      -0.00003842       0.00011075       0.01245603
O        8.42157065       1.62051896      31.07765302        0      -0.00003925       0.00010930       0.00259355
