39
Lattice="8.421641763931781 0.0 0.0 4.2108208819658905 7.293355709136913 0.0 0.0 0.0 46.87624170604845" Properties=species:S:1:pos:R:3:tags:I:1:forces:R:3 charge=0 spin=0 energy=-209.3663339528938 free_energy=-209.3663339528938 stress="0.010483114048838615 6.13158912532441e-10 -1.8058042172697242e-08 6.13158912532441e-10 0.010483166202902794 1.7304861898992385e-07 -1.8058042172697242e-08 1.7304861898992385e-07 -7.653750071767718e-05" pbc="T T T"
Pt      -0.00000001       0.00000022      19.95723425        4       0.00010635       0.00065071       0.01519608
Pt       2.80721397      -0.00000009      19.95723437        4       0.00004835       0.00013878       0.01522786
Pt       5.61442779      -0.00000006      19.95723442        4       0.00009177      -0.00010704       0.01521872
Pt       1.40360720       2.43111836      19.95723428        4      -0.00061987      -0.00023513       0.01519207
Pt       4.21082081       2.43111834      19.95723435        4       0.00005826       0.00060452       0.01572012
Pt       7.01803481       2.43111842      19.95723424        4       0.00051333      -0.00041501       0.01519156
Pt       2.80721405       4.86223723      19.95723396        4       0.00049140      -0.00035521       0.01572377
Pt       5.61442805       4.86223729      19.95723414        4      -0.00055003      -0.00025638       0.01572335
Pt       8.42164141       4.86223719      19.95723428        4      -0.00014328      -0.00002726       0.01522640
Pt       1.40360726       0.81037260      22.29206791        3      -0.00028931       0.00019702      -0.04510872
Pt       4.21082130       0.81037249      22.29206785        3      -0.00020013      -0.00045628      -0.04443591
Pt       7.01803472       0.81037257      22.29206783        3       0.00030873       0.00015165      -0.04510922
Pt       2.80721450       3.24149124      22.29206777        3      -0.00037487       0.00011254      -0.04446100
Pt       5.61442762       3.24149124      22.29206789        3       0.00008839      -0.00036562      -0.04445905
Pt       8.42164156       3.24149128      22.29206809        3      -0.00002361      -0.00033463      -0.04511480
Pt       4.21082092       5.67260996      22.29206799        3       0.00026972       0.00026420      -0.04446203
Pt       7.01803487       5.67261037      22.29206782        3       0.00049258       0.00006406      -0.04443647
Pt       9.82524820       5.67261064      22.29206809        3      -0.00029940       0.00038971      -0.04444080
Pt      -0.00000052       1.62074570      24.58417379        2       0.00000382       0.00001202       0.04983198
Pt       2.80721442       1.62074548      24.58417394        2      -0.00248603       0.00639981       0.02875725
Pt       5.61442780       1.62074537      24.58417373        2       0.00227397       0.00637944       0.02786551
Pt       1.40360637       4.05186438      24.58417386        2       0.00439255      -0.00515365       0.02781986
Pt       4.21082089       4.05186400      24.58417379        2      -0.00000051      -0.00000156       0.04853368
Pt       7.01803504       4.05186405      24.58417405        2      -0.00426580      -0.00535209       0.02869769
Pt       2.80721281       6.48298343      24.58417366        2       0.00677475      -0.00102886       0.02867944
Pt       5.61442797       6.48298326      24.58417386        2      -0.00665045      -0.00120033       0.02777476
Pt       8.42164223       6.48298340      24.58417377        2      -0.00000029       0.00000386       0.04217673
Pt      -0.00032798      -0.00207797      26.92115981        1       0.00038973       0.01180772      -0.02564119
Pt       2.80188687       0.00272139      26.91385884        1       0.03247237      -0.01700372       0.00672727
Pt       5.61945201       0.00325427      26.91386056        1      -0.03097912      -0.01956757       0.00670626
Pt       1.40557418       2.43187211      26.92116567        1      -0.01036901      -0.00555197      -0.02563252
Pt       4.21080360       2.42658919      26.91591788        1      -0.00003037       0.03114352      -0.00252709
Pt       7.01640449       2.43244739      26.92116664        1       0.00997270      -0.00625741      -0.02567283
Pt       2.80330312       4.86452485      26.91590960        1       0.02699791      -0.01557058      -0.00253882
Pt       5.61836530       4.86449041      26.91590581        1      -0.02696455      -0.01565187      -0.00253778
Pt       8.42195480       4.85626733      26.91385800        1      -0.00149972       0.03657291       0.00667430
C        8.42163797       1.62074338      32.06824012        0       0.00000508      -0.00000131       0.00468383
O        8.42164452       1.62074886      33.24956599        0      -0.00000244       0.00000131      -0.01202439
O        8.42163190       1.62073727      30.88752518        0      -0.00000319       0.00000001       0.02525430
