39
Lattice="8.421641763931781 0.0 0.0 4.2108208819658905 7.293355709136913 0.0 0.0 0.0 46.87624170604845" Properties=species:S:1:pos:R:3:tags:I:1:forces:R:3 charge=0 spin=0 energy=-209.36633204554516 free_energy=-209.36633204554516 stress="0.010483103804290295 1.9527647554529182e-10 -2.0310450210558884e-08 1.9527647554529182e-10 0.010483158752322197 1.737864181450277e-07 -2.0310450210558884e-08 1.737864181450277e-07 -7.65547520131804e-05" pbc="T T T"
Pt      -0.00000001       0.00000022      19.95723425        4       0.00010630       0.00065074       0.01519616
Pt       2.80721397      -0.00000009      19.95723437        4       0.00004852       0.00013866       0.01522803
Pt       5.61442779      -0.00000006      19.95723442        4       0.00009174      -0.00010693       0.01521891
Pt       1.40360720       2.43111836      19.95723428        4      -0.00061981      -0.00023519       0.01519201
Pt       4.21082081       2.43111834      19.95723435        4       0.00005815       0.00060451       0.01572004
Pt       7.01803481       2.43111842      19.95723424        4       0.00051338      -0.00041510       0.01519152
Pt       2.80721405       4.86223723      19.95723396        4       0.00049144      -0.00035524       0.01572356
Pt       5.61442805       4.86223729      19.95723414        4      -0.00055006      -0.00025632       0.01572341
Pt       8.42164141       4.86223719      19.95723428        4      -0.00014331      -0.00002729       0.01522642
Pt       1.40360726       0.81037260      22.29206791        3      -0.00028906       0.00019713      -0.04510837
Pt       4.21082130       0.81037249      22.29206785        3      -0.00020029      -0.00045664      -0.04443593
Pt       7.01803472       0.81037257      22.29206783        3       0.00030850       0.00015191      -0.04510864
Pt       2.80721450       3.24149124      22.29206777        3      -0.00037472       0.00011240      -0.04446120
Pt       5.61442762       3.24149124      22.29206789        3       0.00008853      -0.00036563      -0.04446013
Pt       8.42164156       3.24149128      22.29206809        3      -0.00002354      -0.00033462      -0.04511479
Pt       4.21082092       5.67260996      22.29206799        3       0.00026993       0.00026414      -0.04446214
Pt       7.01803487       5.67261037      22.29206782        3       0.00049284       0.00006381      -0.04443596
Pt       9.82524820       5.67261064      22.29206809        3      -0.00029968       0.00038962      -0.04444106
Pt      -0.00000052       1.62074570      24.58417379        2       0.00000533       0.00001077       0.04983049
Pt       2.80721442       1.62074548      24.58417394        2      -0.00248805       0.00639850       0.02875342
Pt       5.61442780       1.62074537      24.58417373        2       0.00227400       0.00637779       0.02785817
Pt       1.40360637       4.05186438      24.58417386        2       0.00439266      -0.00515388       0.02781875
Pt       4.21082089       4.05186400      24.58417379        2      -0.00000127       0.00000050       0.04853359
Pt       7.01803504       4.05186405      24.58417405        2      -0.00426567      -0.00535039       0.02869386
Pt       2.80721281       6.48298343      24.58417366        2       0.00677484      -0.00102945       0.02867722
Pt       5.61442797       6.48298326      24.58417386        2      -0.00665062      -0.00120026       0.02777448
Pt       8.42164223       6.48298340      24.58417377        2      -0.00000027       0.00000370       0.04217685
Pt      -0.00032817      -0.00207820      26.92115881        1       0.00039382       0.01180879      -0.02564092
Pt       2.80188673       0.00272150      26.91385843        1       0.03247033      -0.01700596       0.00672746
Pt       5.61945244       0.00325457      26.91386092        1      -0.03098279      -0.01957110       0.00670660
Pt       1.40557421       2.43187219      26.92116486        1      -0.01036915      -0.00555183      -0.02563250
Pt       4.21080367       2.42658859      26.91591707        1      -0.00003216       0.03114893      -0.00251920
Pt       7.01640424       2.43244754      26.92116566        1       0.00997657      -0.00625701      -0.02566422
Pt       2.80330270       4.86452519      26.91590823        1       0.02700167      -0.01557454      -0.00253901
Pt       5.61836557       4.86449059      26.91590501        1      -0.02696800      -0.01565006      -0.00253721
Pt       8.42195473       4.85626708      26.91385813        1      -0.00149961       0.03657531       0.00667458
C        8.42163789       1.62074313      32.06822360        0       0.00001069       0.00000049       0.00535384
O        8.42164531       1.62074824      33.24955094        0      -0.00000529       0.00000039      -0.01235874
O        8.42163137       1.62073762      30.88751031        0      -0.00000575      -0.00000070       0.02492054
