39
Lattice="8.421641763931781 0.0 0.0 4.2108208819658905 7.293355709136913 0.0 0.0 0.0 46.87624170604845" Properties=species:S:1:pos:R:3:tags:I:1:forces:R:3 charge=0 spin=0 energy=-209.3680438909431 free_energy=-209.3680438909431 stress="0.010483440943062305 2.8376653804507157e-10 3.3934861587425758e-09 2.8376653804507157e-10 0.010483451187610626 -6.44066062704951e-08 3.3934861587425758e-09 -6.44066062704951e-08 -7.093291787896305e-05" pbc="T T T"
Pt      -0.00000001       0.00000022      19.95723425        4       0.00015324       0.00028436       0.01501075
Pt       2.80721397      -0.00000009      19.95723437        4       0.00017303       0.00011961       0.01520691
Pt       5.61442779      -0.00000006      19.95723442        4       0.00001343      -0.00020675       0.01519661
Pt       1.40360720       2.43111836      19.95723428        4      -0.00032444      -0.00001093       0.01501385
Pt       4.21082081       2.43111834      19.95723435        4      -0.00000180       0.00067249       0.01560765
Pt       7.01803481       2.43111842      19.95723424        4       0.00017222      -0.00027223       0.01501274
Pt       2.80721405       4.86223723      19.95723396        4       0.00058288      -0.00033555       0.01560530
Pt       5.61442805       4.86223729      19.95723414        4      -0.00058035      -0.00034193       0.01560560
Pt       8.42164141       4.86223719      19.95723428        4      -0.00018844       0.00009196       0.01520630
Pt       1.40360726       0.81037260      22.29206791        3      -0.00099423       0.00041107      -0.04780853
Pt       4.21082130       0.81037249      22.29206785        3      -0.00037338      -0.00012448      -0.04312297
Pt       7.01803472       0.81037257      22.29206783        3       0.00085389       0.00065266      -0.04780643
Pt       2.80721450       3.24149124      22.29206777        3      -0.00077364      -0.00006697      -0.04420910
Pt       5.61442762       3.24149124      22.29206789        3       0.00044704      -0.00062687      -0.04420653
Pt       8.42164156       3.24149128      22.29206809        3       0.00014614      -0.00105749      -0.04781005
Pt       4.21082092       5.67260996      22.29206799        3       0.00031921       0.00070078      -0.04421675
Pt       7.01803487       5.67261037      22.29206782        3       0.00029221      -0.00025844      -0.04313190
Pt       9.82524820       5.67261064      22.29206809        3       0.00008189       0.00037376      -0.04313759
Pt      -0.00000052       1.62074570      24.58417379        2      -0.00000135       0.00000094       0.02646249
Pt       2.80721442       1.62074548      24.58417394        2       0.01081889       0.00603902       0.02976154
Pt       5.61442780       1.62074537      24.58417373        2      -0.01072546       0.00608389       0.02860828
Pt       1.40360637       4.05186438      24.58417386        2       0.01064620       0.00624497       0.02858667
Pt       4.21082089       4.05186400      24.58417379        2      -0.00000289      -0.00001221       0.06777269
Pt       7.01803504       4.05186405      24.58417405        2      -0.01062926       0.00636085       0.02972093
Pt       2.80721281       6.48298343      24.58417366        2      -0.00018573      -0.01240219       0.02969932
Pt       5.61442797       6.48298326      24.58417386        2       0.00008409      -0.01233492       0.02852082
Pt       8.42164223       6.48298340      24.58417377        2       0.00000128      -0.00000262       0.04253755
Pt      -0.00056661      -0.00302337      26.91446389        1       0.00131201       0.01245451       0.00933517
Pt       2.80194888       0.00231482      26.91379998        1       0.03585609      -0.01700867       0.00619296
Pt       5.61907527       0.00338966      26.91380739        1      -0.03272235      -0.02245053       0.00618111
Pt       1.40650085       2.43212925      26.91446789        1      -0.01138141      -0.00501163       0.00932175
Pt       4.21103133       2.42835617      26.92246545        1      -0.00134553       0.02295554      -0.02954901
Pt       7.01570604       2.43312291      26.91446935        1       0.01007028      -0.00740358       0.00935095
Pt       2.80472594       4.86343187      26.92246139        1       0.02051979      -0.01033685      -0.02951968
Pt       5.61670998       4.86379974      26.92245598        1      -0.01920266      -0.01268012      -0.02949186
Pt       8.42226317       4.85652392      26.91380230        1      -0.00311096       0.03949825       0.00622172
C        8.42164137       1.62074800      32.27873602        0       0.00001212      -0.00000323      -0.03093535
O        8.42164060       1.62074321      33.45972318        0      -0.00000616       0.00000165       0.02422903
O        8.42164421       1.62075247      31.09819596        0      -0.00000598       0.00000196       0.00497717
