39
Lattice="8.421641763931781 0.0 0.0 4.2108208819658905 7.293355709136913 0.0 0.0 0.0 46.87624170604845" Properties=species:S:1:pos:R:3:tags:I:1:forces:R:3 charge=0 spin=0 energy=-209.36765574549634 free_energy=-209.36765574549634 stress="0.010384547524154186 -7.332936480253238e-10 -6.311819955584497e-09 -7.332936480253238e-10 0.01038457453250885 -6.77507117075038e-08 -6.311819955584497e-09 -6.77507117075038e-08 -0.00026230348157696426" pbc="T T T"
Pt      -0.00000001       0.00000022      19.95723425        4       0.00004823      -0.00001180       0.01509228
Pt       2.80721397      -0.00000009      19.95723437        4      -0.00026273       0.00035722       0.01508948
Pt       5.61442779      -0.00000006      19.95723442        4       0.00043540       0.00005509       0.01508177
Pt       1.40360720       2.43111836      19.95723428        4      -0.00001495       0.00004504       0.01509116
Pt       4.21082081       2.43111834      19.95723435        4       0.00013560      -0.00048314       0.01549421
Pt       7.01803481       2.43111842      19.95723424        4      -0.00003202      -0.00003248       0.01509205
Pt       2.80721405       4.86223723      19.95723396        4      -0.00048943       0.00012231       0.01550106
Pt       5.61442805       4.86223729      19.95723414        4       0.00035488       0.00035498       0.01550061
Pt       8.42164141       4.86223719      19.95723428        4      -0.00017510      -0.00040814       0.01509508
Pt       1.40360726       0.81037260      22.29206791        3       0.00037040       0.00022607      -0.04344589
Pt       4.21082130       0.81037249      22.29206785        3      -0.00042225       0.00031735      -0.04302970
Pt       7.01803472       0.81037257      22.29206783        3       0.00001024      -0.00043688      -0.04344286
Pt       2.80721450       3.24149124      22.29206777        3       0.00034162       0.00035163      -0.04678322
Pt       5.61442762       3.24149124      22.29206789        3      -0.00047591       0.00013006      -0.04677696
Pt       8.42164156       3.24149128      22.29206809        3      -0.00037747       0.00021509      -0.04343422
Pt       4.21082092       5.67260996      22.29206799        3       0.00012614      -0.00047564      -0.04678240
Pt       7.01803487       5.67261037      22.29206782        3      -0.00006463      -0.00051673      -0.04301680
Pt       9.82524820       5.67261064      22.29206809        3       0.00048646       0.00019520      -0.04302229
Pt      -0.00000052       1.62074570      24.58417379        2       0.00000415       0.00000828       0.00266474
Pt       2.80721442       1.62074548      24.58417394        2      -0.00521513      -0.00664758       0.01502979
Pt       5.61442780       1.62074537      24.58417373        2       0.00536753      -0.00667133       0.01522705
Pt       1.40360637       4.05186438      24.58417386        2      -0.00845978      -0.00130775       0.01518238
Pt       4.21082089       4.05186400      24.58417379        2       0.00000901       0.00001290      -0.01682271
Pt       7.01803504       4.05186405      24.58417405        2       0.00836645      -0.00118496       0.01498814
Pt       2.80721281       6.48298343      24.58417366        2      -0.00315078       0.00783599       0.01498871
Pt       5.61442797       6.48298326      24.58417386        2       0.00309732       0.00798671       0.01519962
Pt       8.42164223       6.48298340      24.58417377        2      -0.00001450      -0.00001396       0.01498523
Pt      -0.00042280       0.00310247      26.91352086        1       0.00144083      -0.01505786       0.00893314
Pt       2.81042145      -0.00202952      26.91564346        1      -0.01994828       0.01239793       0.00252463
Pt       5.61105841      -0.00175147      26.91563855        1       0.02072473       0.01103349       0.00256244
Pt       1.40113694       2.42920360      26.91352677        1       0.01232156       0.00876283       0.00892943
Pt       4.21061330       2.43317804      26.90628082        1       0.00093499      -0.01927134       0.04275028
Pt       7.02092923       2.42993311      26.91352661        1      -0.01376847       0.00626939       0.00893952
Pt       2.80909119       4.86138938      26.90627727        1      -0.01711751       0.00884212       0.04275913
Pt       5.61275637       4.86102886      26.90628364        1       0.01619306       0.01046381       0.04272348
Pt       8.42180049       4.86602324      26.91564336        1      -0.00077940      -0.02346324       0.00254942
C        8.42164268       1.62074634      32.17088503        0       0.00002380       0.00000847       0.02139203
O        8.42164014       1.62074435      33.35206616        0      -0.00001197      -0.00000417       0.00627589
O        8.42164783       1.62074964      30.99060185        0      -0.00001194      -0.00000513      -0.01908544
