39
Lattice="8.421641763931781 0.0 0.0 4.2108208819658905 7.293355709136913 0.0 0.0 0.0 46.87624170604845" Properties=species:S:1:pos:R:3:tags:I:1:forces:R:3 charge=0 spin=0 energy=-209.36633681391675 free_energy=-209.36633681391675 stress="0.01048311311751604 1.7882699765436882e-09 -1.7134766494564246e-08 1.7882699765436882e-09 0.01048316527158022 1.746207090036478e-07 -1.7134766494564246e-08 1.746207090036478e-07 -7.645319419680163e-05" pbc="T T T"
Pt      -0.00000001       0.00000022      19.95723425        4       0.00010610       0.00065063       0.01519627
Pt       2.80721397      -0.00000009      19.95723437        4       0.00004838       0.00013871       0.01522784
Pt       5.61442779      -0.00000006      19.95723442        4       0.00009175      -0.00010698       0.01521904
Pt       1.40360720       2.43111836      19.95723428        4      -0.00061991      -0.00023514       0.01519211
Pt       4.21082081       2.43111834      19.95723435        4       0.00005810       0.00060451       0.01571999
Pt       7.01803481       2.43111842      19.95723424        4       0.00051342      -0.00041496       0.01519148
Pt       2.80721405       4.86223723      19.95723396        4       0.00049153      -0.00035513       0.01572379
Pt       5.61442805       4.86223729      19.95723414        4      -0.00055016      -0.00025637       0.01572352
Pt       8.42164141       4.86223719      19.95723428        4      -0.00014340      -0.00002731       0.01522646
Pt       1.40360726       0.81037260      22.29206791        3      -0.00028904       0.00019733      -0.04510865
Pt       4.21082130       0.81037249      22.29206785        3      -0.00019981      -0.00045649      -0.04443676
Pt       7.01803472       0.81037257      22.29206783        3       0.00030874       0.00015219      -0.04510799
Pt       2.80721450       3.24149124      22.29206777        3      -0.00037498       0.00011264      -0.04446021
Pt       5.61442762       3.24149124      22.29206789        3       0.00008831      -0.00036556      -0.04446031
Pt       8.42164156       3.24149128      22.29206809        3      -0.00002353      -0.00033445      -0.04511449
Pt       4.21082092       5.67260996      22.29206799        3       0.00026964       0.00026431      -0.04446166
Pt       7.01803487       5.67261037      22.29206782        3       0.00049313       0.00006435      -0.04443684
Pt       9.82524820       5.67261064      22.29206809        3      -0.00029943       0.00038990      -0.04444120
Pt      -0.00000052       1.62074570      24.58417379        2       0.00000480       0.00001016       0.04983734
Pt       2.80721442       1.62074548      24.58417394        2      -0.00249024       0.00640154       0.02875429
Pt       5.61442780       1.62074537      24.58417373        2       0.00227613       0.00637877       0.02786098
Pt       1.40360637       4.05186438      24.58417386        2       0.00439280      -0.00515600       0.02782121
Pt       4.21082089       4.05186400      24.58417379        2      -0.00000051       0.00000077       0.04853339
Pt       7.01803504       4.05186405      24.58417405        2      -0.00426581      -0.00535237       0.02869686
Pt       2.80721281       6.48298343      24.58417366        2       0.00677662      -0.00102844       0.02868130
Pt       5.61442797       6.48298326      24.58417386        2      -0.00665372      -0.00120054       0.02777424
Pt       8.42164223       6.48298340      24.58417377        2       0.00000125       0.00000250       0.04217601
Pt      -0.00032793      -0.00207807      26.92116086        1       0.00038925       0.01180952      -0.02564940
Pt       2.80188667       0.00272142      26.91385745        1       0.03247170      -0.01700517       0.00673569
Pt       5.61945255       0.00325479      26.91386074        1      -0.03098069      -0.01957273       0.00670664
Pt       1.40557413       2.43187193      26.92116658        1      -0.01036912      -0.00555198      -0.02564136
Pt       4.21080352       2.42658848      26.91591692        1      -0.00003276       0.03114830      -0.00251848
Pt       7.01640434       2.43244738      26.92116764        1       0.00997642      -0.00625969      -0.02567079
Pt       2.80330277       4.86452491      26.91590834        1       0.02700245      -0.01557167      -0.00253892
Pt       5.61836565       4.86449067      26.91590483        1      -0.02696865      -0.01565099      -0.00253808
Pt       8.42195476       4.85626656      26.91385751        1      -0.00149898       0.03657633       0.00667424
C        8.42163792       1.62074367      32.06826246        0       0.00001072      -0.00000051       0.00451558
O        8.42164470       1.62074907      33.24958924        0      -0.00000527       0.00000087      -0.01203551
O        8.42163168       1.62073769      30.88754689        0      -0.00000567      -0.00000058       0.02543208
