39
Lattice="8.421641763931781 0.0 0.0 4.2108208819658905 7.293355709136913 0.0 0.0 0.0 46.87624170604845" Properties=species:S:1:pos:R:3:tags:I:1:forces:R:3 charge=0 spin=0 energy=-209.36804484461743 free_energy=-209.36804484461743 stress="0.010483447462320328 2.0584005611112843e-09 3.2552852080591776e-10 2.0584005611112843e-09 0.010483457706868649 -6.275581654335838e-08 3.2552852080591776e-10 -6.275581654335838e-08 -7.108710997272283e-05" pbc="T T T"
Pt      -0.00000001       0.00000022      19.95723425        4       0.00015328       0.00028425       0.01501092
Pt       2.80721397      -0.00000009      19.95723437        4       0.00017316       0.00011936       0.01520691
Pt       5.61442779      -0.00000006      19.95723442        4       0.00001334      -0.00020677       0.01519669
Pt       1.40360720       2.43111836      19.95723428        4      -0.00032458      -0.00001107       0.01501393
Pt       4.21082081       2.43111834      19.95723435        4      -0.00000176       0.00067261       0.01560746
Pt       7.01803481       2.43111842      19.95723424        4       0.00017224      -0.00027218       0.01501285
Pt       2.80721405       4.86223723      19.95723396        4       0.00058269      -0.00033563       0.01560526
Pt       5.61442805       4.86223729      19.95723414        4      -0.00058032      -0.00034198       0.01560539
Pt       8.42164141       4.86223719      19.95723428        4      -0.00018824       0.00009206       0.01520619
Pt       1.40360726       0.81037260      22.29206791        3      -0.00099470       0.00041141      -0.04780874
Pt       4.21082130       0.81037249      22.29206785        3      -0.00037341      -0.00012423      -0.04312139
Pt       7.01803472       0.81037257      22.29206783        3       0.00085405       0.00065305      -0.04780673
Pt       2.80721450       3.24149124      22.29206777        3      -0.00077375      -0.00006711      -0.04420824
Pt       5.61442762       3.24149124      22.29206789        3       0.00044724      -0.00062683      -0.04420786
Pt       8.42164156       3.24149128      22.29206809        3       0.00014568      -0.00105761      -0.04781089
Pt       4.21082092       5.67260996      22.29206799        3       0.00031928       0.00070099      -0.04421723
Pt       7.01803487       5.67261037      22.29206782        3       0.00029188      -0.00025843      -0.04313232
Pt       9.82524820       5.67261064      22.29206809        3       0.00008189       0.00037347      -0.04313585
Pt      -0.00000052       1.62074570      24.58417379        2      -0.00000345      -0.00000036       0.02646358
Pt       2.80721442       1.62074548      24.58417394        2       0.01082279       0.00603861       0.02976144
Pt       5.61442780       1.62074537      24.58417373        2      -0.01072714       0.00608236       0.02861299
Pt       1.40360637       4.05186438      24.58417386        2       0.01065125       0.00624936       0.02858592
Pt       4.21082089       4.05186400      24.58417379        2      -0.00000611      -0.00001198       0.06777906
Pt       7.01803504       4.05186405      24.58417405        2      -0.01063097       0.00635995       0.02971884
Pt       2.80721281       6.48298343      24.58417366        2      -0.00018813      -0.01240433       0.02970754
Pt       5.61442797       6.48298326      24.58417386        2       0.00008399      -0.01233539       0.02852098
Pt       8.42164223       6.48298340      24.58417377        2       0.00000370       0.00000029       0.04253511
Pt      -0.00056657      -0.00302414      26.91446262        1       0.00131006       0.01245890       0.00933140
Pt       2.80194953       0.00231444      26.91379985        1       0.03585141      -0.01700468       0.00619290
Pt       5.61907471       0.00338960      26.91380860        1      -0.03271685      -0.02244967       0.00617344
Pt       1.40650144       2.43212995      26.91446629        1      -0.01138424      -0.00501589       0.00932775
Pt       4.21103132       2.42835649      26.92246764        1      -0.00134528       0.02295460      -0.02955583
Pt       7.01570513       2.43312340      26.91446827        1       0.01007436      -0.00740838       0.00934745
Pt       2.80472613       4.86343175      26.92246391        1       0.02051838      -0.01033531      -0.02953425
Pt       5.61670958       4.86379969      26.92245769        1      -0.01920277      -0.01267977      -0.02949201
Pt       8.42226292       4.85652427      26.91380198        1      -0.00310956       0.03949550       0.00623079
C        8.42164164       1.62074759      32.27866294        0       0.00001182      -0.00000216      -0.03126259
O        8.42164007       1.62074237      33.45964978        0      -0.00000577       0.00000137       0.02458662
O        8.42164440       1.62075262      31.09812301        0      -0.00000547       0.00000156       0.00495266
