39
Lattice="8.421641763931781 0.0 0.0 4.2108208819658905 7.293355709136913 0.0 0.0 0.0 46.87624170604845" Properties=species:S:1:pos:R:3:tags:I:1:forces:R:3 charge=0 spin=0 energy=-209.36888503169018 free_energy=-209.36888503169018 stress="0.010478448122739792 -7.355950848442205e-10 9.822798130443289e-10 -7.355950848442205e-10 0.010478401556611061 -2.1041990372339114e-09 9.822798130443289e-10 -2.1041990372339114e-09 -7.973840547492728e-05" pbc="T T T"
Pt      -0.00000001       0.00000022      19.95723425        4       0.00008565       0.00005528       0.01513185
Pt       2.80721397      -0.00000009      19.95723437        4      -0.00003540       0.00025001       0.01518658
Pt       5.61442779      -0.00000006      19.95723442        4       0.00022999      -0.00009066       0.01517752
Pt       1.40360720       2.43111836      19.95723428        4      -0.00009244       0.00004205       0.01513325
Pt       4.21082081       2.43111834      19.95723435        4       0.00009410      -0.00005404       0.01558109
Pt       7.01803481       2.43111842      19.95723424        4       0.00000820      -0.00010159       0.01513308
Pt       2.80721405       4.86223723      19.95723396        4      -0.00009425      -0.00005730       0.01558331
Pt       5.61442805       4.86223729      19.95723414        4       0.00000146       0.00010253       0.01558268
Pt       8.42164141       4.86223719      19.95723428        4      -0.00019683      -0.00015693       0.01518976
Pt       1.40360726       0.81037260      22.29206791        3      -0.00031827       0.00031246      -0.04584194
Pt       4.21082130       0.81037249      22.29206785        3      -0.00038366       0.00019465      -0.04305323
Pt       7.01803472       0.81037257      22.29206783        3       0.00043513       0.00010607      -0.04583926
Pt       2.80721450       3.24149124      22.29206777        3      -0.00016996       0.00006986      -0.04604151
Pt       5.61442762       3.24149124      22.29206789        3       0.00002183      -0.00017691      -0.04603804
Pt       8.42164156       3.24149128      22.29206809        3      -0.00011546      -0.00043022      -0.04584474
Pt       4.21082092       5.67260996      22.29206799        3       0.00013953       0.00009958      -0.04604681
Pt       7.01803487       5.67261037      22.29206782        3       0.00001582      -0.00043280      -0.04306104
Pt       9.82524820       5.67261064      22.29206809        3       0.00036561       0.00021295      -0.04306442
Pt      -0.00000052       1.62074570      24.58417379        2       0.00000489      -0.00001232       0.02598426
Pt       2.80721442       1.62074548      24.58417394        2       0.00244233      -0.00063732       0.03428169
Pt       5.61442780       1.62074537      24.58417373        2      -0.00250169      -0.00135527       0.03383183
Pt       1.40360637       4.05186438      24.58417386        2       0.00009510       0.00285363       0.03378214
Pt       4.21082089       4.05186400      24.58417379        2       0.00000008       0.00001213       0.03460812
Pt       7.01803504       4.05186405      24.58417405        2      -0.00066446       0.00244005       0.03422909
Pt       2.80721281       6.48298343      24.58417366        2      -0.00175623      -0.00175564       0.03427224
Pt       5.61442797       6.48298326      24.58417386        2       0.00240370      -0.00144806       0.03381207
Pt       8.42164223       6.48298340      24.58417377        2      -0.00000328       0.00002545       0.03411157
Pt      -0.00008793      -0.00002106      26.91606047        1      -0.00009358       0.00142929      -0.00127932
Pt       2.80802852      -0.00026470      26.91720071        1      -0.00427238       0.00237993      -0.00586288
Pt       5.61377732      -0.00053932      26.91720361        1       0.00418247       0.00250756      -0.00586389
Pt       1.40369539       2.43107350      26.91603518        1      -0.00117346      -0.00077058      -0.00112489
Pt       4.21096679       2.43134453      26.91647949        1      -0.00072961      -0.00112179      -0.00362361
Pt       7.01804489       2.43122710      26.91603750        1       0.00125633      -0.00063631      -0.00112765
Pt       2.80732307       4.86203694      26.91647090        1      -0.00058577       0.00115536      -0.00364242
Pt       5.61418122       4.86227862      26.91647059        1       0.00130859      -0.00009691      -0.00364948
Pt       8.42148301       4.86309503      26.91718373        1       0.00009631      -0.00491434      -0.00580475
C        8.42161157       1.62062572      32.25814613        0       0.00008411      -0.00022134      -0.01401892
O        8.42166722       1.62069630      33.43926169        0      -0.00004170       0.00011156       0.01213109
O        8.42156981       1.62051973      31.07763659        0      -0.00004252       0.00011001       0.00208583
