39
Lattice="8.421641763931781 0.0 0.0 4.2108208819658905 7.293355709136913 0.0 0.0 0.0 46.87624170604845" Properties=species:S:1:pos:R:3:tags:I:1:forces:R:3 charge=0 spin=0 energy=-209.3680438909431 free_energy=-209.3680438909431 stress="0.010483433492481709 -3.54305418337475e-10 1.490405354687141e-09 -3.54305418337475e-10 0.010483449324965477 -6.327722701371385e-08 1.490405354687141e-09 -6.327722701371385e-08 -7.109485159162432e-05" pbc="T T T"
Pt      -0.00000001       0.00000022      19.95723425        4       0.00015331       0.00028455       0.01501079
Pt       2.80721397      -0.00000009      19.95723437        4       0.00017278       0.00011951       0.01520689
Pt       5.61442779      -0.00000006      19.95723442        4       0.00001354      -0.00020645       0.01519633
Pt       1.40360720       2.43111836      19.95723428        4      -0.00032465      -0.00001120       0.01501412
Pt       4.21082081       2.43111834      19.95723435        4      -0.00000164       0.00067242       0.01560725
Pt       7.01803481       2.43111842      19.95723424        4       0.00017233      -0.00027234       0.01501287
Pt       2.80721405       4.86223723      19.95723396        4       0.00058261      -0.00033555       0.01560511
Pt       5.61442805       4.86223729      19.95723414        4      -0.00058007      -0.00034182       0.01560558
Pt       8.42164141       4.86223719      19.95723428        4      -0.00018833       0.00009188       0.01520617
Pt       1.40360726       0.81037260      22.29206791        3      -0.00099374       0.00041066      -0.04780705
Pt       4.21082130       0.81037249      22.29206785        3      -0.00037327      -0.00012504      -0.04312528
Pt       7.01803472       0.81037257      22.29206783        3       0.00085327       0.00065245      -0.04780483
Pt       2.80721450       3.24149124      22.29206777        3      -0.00077420      -0.00006693      -0.04420932
Pt       5.61442762       3.24149124      22.29206789        3       0.00044727      -0.00062664      -0.04420624
Pt       8.42164156       3.24149128      22.29206809        3       0.00014547      -0.00105670      -0.04780801
Pt       4.21082092       5.67260996      22.29206799        3       0.00031911       0.00070086      -0.04421609
Pt       7.01803487       5.67261037      22.29206782        3       0.00029238      -0.00025821      -0.04313332
Pt       9.82524820       5.67261064      22.29206809        3       0.00008160       0.00037398      -0.04313876
Pt      -0.00000052       1.62074570      24.58417379        2      -0.00000498      -0.00000113       0.02646267
Pt       2.80721442       1.62074548      24.58417394        2       0.01081701       0.00603987       0.02975948
Pt       5.61442780       1.62074537      24.58417373        2      -0.01071909       0.00608626       0.02861147
Pt       1.40360637       4.05186438      24.58417386        2       0.01064553       0.00624270       0.02858411
Pt       4.21082089       4.05186400      24.58417379        2      -0.00000331      -0.00001258       0.06776711
Pt       7.01803504       4.05186405      24.58417405        2      -0.01062748       0.00635477       0.02972169
Pt       2.80721281       6.48298343      24.58417366        2      -0.00018196      -0.01239876       0.02970257
Pt       5.61442797       6.48298326      24.58417386        2       0.00007926      -0.01233049       0.02852066
Pt       8.42164223       6.48298340      24.58417377        2       0.00000090      -0.00000288       0.04253777
Pt      -0.00056662      -0.00302033      26.91446620        1       0.00131065       0.01243441       0.00931878
Pt       2.80194865       0.00231509      26.91379905        1       0.03585773      -0.01701049       0.00619458
Pt       5.61907546       0.00339003      26.91380752        1      -0.03272187      -0.02245252       0.00618181
Pt       1.40649837       2.43212797      26.91446896        1      -0.01136616      -0.00500394       0.00932648
Pt       4.21103163       2.42835548      26.92246349        1      -0.00134498       0.02296126      -0.02954267
Pt       7.01570836       2.43312159      26.91447182        1       0.01005415      -0.00739730       0.00933891
Pt       2.80472538       4.86343209      26.92245846        1       0.02052836      -0.01033570      -0.02951449
Pt       5.61671056       4.86380011      26.92245293        1      -0.01920780      -0.01268222      -0.02948062
Pt       8.42226324       4.85652316      26.91380235        1      -0.00311344       0.03950321       0.00622307
C        8.42164158       1.62074771      32.27876968        0       0.00000624       0.00000035      -0.03126813
O        8.42163979       1.62074247      33.45975454        0      -0.00000335      -0.00000017       0.02459128
O        8.42164410       1.62075288      31.09823062        0      -0.00000313      -0.00000008       0.00494731
