39
Lattice="8.421641763931781 0.0 0.0 4.2108208819658905 7.293355709136913 0.0 0.0 0.0 46.87624170604845" Properties=species:S:1:pos:R:3:tags:I:1:forces:R:3 charge=0 spin=0 energy=-209.36633681391675 free_energy=-209.36633681391675 stress="0.010483111254870892 2.362649631493241e-09 -1.7902898719057703e-08 2.362649631493241e-09 0.010483172722160816 1.7084666126265802e-07 -1.7902898719057703e-08 1.7084666126265802e-07 -7.661100971745327e-05" pbc="T T T"
Pt      -0.00000001       0.00000022      19.95723425        4       0.00010632       0.00065046       0.01519616
Pt       2.80721397      -0.00000009      19.95723437        4       0.00004868       0.00013876       0.01522793
Pt       5.61442779      -0.00000006      19.95723442        4       0.00009172      -0.00010688       0.01521868
Pt       1.40360720       2.43111836      19.95723428        4      -0.00061979      -0.00023491       0.01519194
Pt       4.21082081       2.43111834      19.95723435        4       0.00005824       0.00060456       0.01571995
Pt       7.01803481       2.43111842      19.95723424        4       0.00051328      -0.00041492       0.01519154
Pt       2.80721405       4.86223723      19.95723396        4       0.00049136      -0.00035517       0.01572366
Pt       5.61442805       4.86223729      19.95723414        4      -0.00055007      -0.00025630       0.01572332
Pt       8.42164141       4.86223719      19.95723428        4      -0.00014325      -0.00002718       0.01522629
Pt       1.40360726       0.81037260      22.29206791        3      -0.00028956       0.00019704      -0.04510960
Pt       4.21082130       0.81037249      22.29206785        3      -0.00020040      -0.00045602      -0.04443539
Pt       7.01803472       0.81037257      22.29206783        3       0.00030897       0.00015136      -0.04510893
Pt       2.80721450       3.24149124      22.29206777        3      -0.00037469       0.00011230      -0.04446133
Pt       5.61442762       3.24149124      22.29206789        3       0.00008855      -0.00036596      -0.04445966
Pt       8.42164156       3.24149128      22.29206809        3      -0.00002386      -0.00033572      -0.04511557
Pt       4.21082092       5.67260996      22.29206799        3       0.00026968       0.00026420      -0.04446195
Pt       7.01803487       5.67261037      22.29206782        3       0.00049247       0.00006329      -0.04443589
Pt       9.82524820       5.67261064      22.29206809        3      -0.00029922       0.00038933      -0.04444054
Pt      -0.00000052       1.62074570      24.58417379        2       0.00000376       0.00001207       0.04982666
Pt       2.80721442       1.62074548      24.58417394        2      -0.00248405       0.00639842       0.02875438
Pt       5.61442780       1.62074537      24.58417373        2       0.00227228       0.00637603       0.02786556
Pt       1.40360637       4.05186438      24.58417386        2       0.00439380      -0.00515000       0.02782043
Pt       4.21082089       4.05186400      24.58417379        2      -0.00000088       0.00000063       0.04853839
Pt       7.01803504       4.05186405      24.58417405        2      -0.00426769      -0.00534855       0.02869790
Pt       2.80721281       6.48298343      24.58417366        2       0.00677181      -0.00103082       0.02868163
Pt       5.61442797       6.48298326      24.58417386        2      -0.00664883      -0.00120292       0.02777533
Pt       8.42164223       6.48298340      24.58417377        2       0.00000200       0.00000495       0.04217830
Pt      -0.00032790      -0.00207847      26.92115759        1       0.00038991       0.01180894      -0.02563502
Pt       2.80188730       0.00272112      26.91385820        1       0.03246997      -0.01700386       0.00672789
Pt       5.61945188       0.00325419      26.91386134        1      -0.03097873      -0.01956769       0.00669591
Pt       1.40557461       2.43187228      26.92116406        1      -0.01037036      -0.00555183      -0.02562421
Pt       4.21080335       2.42658931      26.91591898        1      -0.00003028       0.03114419      -0.00252563
Pt       7.01640396       2.43244758      26.92116460        1       0.00997408      -0.00625782      -0.02566513
Pt       2.80330309       4.86452465      26.91591017        1       0.02699748      -0.01556977      -0.00254666
Pt       5.61836500       4.86449032      26.91590681        1      -0.02696288      -0.01565255      -0.00254573
Pt       8.42195487       4.85626773      26.91385801        1      -0.00149947       0.03657104       0.00667608
C        8.42163793       1.62074333      32.06823402        0       0.00000503       0.00000086       0.00418210
O        8.42164449       1.62074828      33.24955548        0      -0.00000248       0.00000036      -0.01167961
O        8.42163178       1.62073792      30.88751691        0      -0.00000304      -0.00000001       0.02541053
