39
Lattice="8.421641763931781 0.0 0.0 4.2108208819658905 7.293355709136913 0.0 0.0 0.0 46.87624170604845" Properties=species:S:1:pos:R:3:tags:I:1:forces:R:3 charge=0 spin=0 energy=-209.36804770564038 free_energy=-209.36804770564038 stress="0.010483438149094582 1.2753959000022519e-09 1.8591505002163444e-09 1.2753959000022519e-09 0.01048345398157835 -5.953830850558006e-08 1.8591505002163444e-09 -5.953830850558006e-08 -7.094369357218966e-05" pbc="T T T"
Pt      -0.00000001       0.00000022      19.95723425        4       0.00015323       0.00028426       0.01501079
Pt       2.80721397      -0.00000009      19.95723437        4       0.00017292       0.00011953       0.01520696
Pt       5.61442779      -0.00000006      19.95723442        4       0.00001347      -0.00020660       0.01519637
Pt       1.40360720       2.43111836      19.95723428        4      -0.00032445      -0.00001128       0.01501423
Pt       4.21082081       2.43111834      19.95723435        4      -0.00000177       0.00067254       0.01560732
Pt       7.01803481       2.43111842      19.95723424        4       0.00017215      -0.00027228       0.01501296
Pt       2.80721405       4.86223723      19.95723396        4       0.00058285      -0.00033545       0.01560515
Pt       5.61442805       4.86223729      19.95723414        4      -0.00058027      -0.00034201       0.01560558
Pt       8.42164141       4.86223719      19.95723428        4      -0.00018832       0.00009184       0.01520611
Pt       1.40360726       0.81037260      22.29206791        3      -0.00099388       0.00041064      -0.04780751
Pt       4.21082130       0.81037249      22.29206785        3      -0.00037341      -0.00012496      -0.04312434
Pt       7.01803472       0.81037257      22.29206783        3       0.00085365       0.00065259      -0.04780529
Pt       2.80721450       3.24149124      22.29206777        3      -0.00077369      -0.00006666      -0.04420825
Pt       5.61442762       3.24149124      22.29206789        3       0.00044725      -0.00062653      -0.04420572
Pt       8.42164156       3.24149128      22.29206809        3       0.00014554      -0.00105681      -0.04780875
Pt       4.21082092       5.67260996      22.29206799        3       0.00031894       0.00070094      -0.04421614
Pt       7.01803487       5.67261037      22.29206782        3       0.00029204      -0.00025799      -0.04313258
Pt       9.82524820       5.67261064      22.29206809        3       0.00008135       0.00037393      -0.04313864
Pt      -0.00000052       1.62074570      24.58417379        2      -0.00000300      -0.00000054       0.02645828
Pt       2.80721442       1.62074548      24.58417394        2       0.01081928       0.00604002       0.02976197
Pt       5.61442780       1.62074537      24.58417373        2      -0.01072342       0.00608601       0.02861220
Pt       1.40360637       4.05186438      24.58417386        2       0.01064953       0.00624386       0.02858414
Pt       4.21082089       4.05186400      24.58417379        2      -0.00000367      -0.00001265       0.06777122
Pt       7.01803504       4.05186405      24.58417405        2      -0.01063083       0.00635676       0.02971921
Pt       2.80721281       6.48298343      24.58417366        2      -0.00018399      -0.01240192       0.02970243
Pt       5.61442797       6.48298326      24.58417386        2       0.00008164      -0.01233275       0.02852081
Pt       8.42164223       6.48298340      24.58417377        2       0.00000121      -0.00000067       0.04253494
Pt      -0.00056654      -0.00302073      26.91446558        1       0.00131202       0.01243516       0.00932951
Pt       2.80194888       0.00231492      26.91379969        1       0.03585753      -0.01700806       0.00619369
Pt       5.61907546       0.00338983      26.91380686        1      -0.03272193      -0.02245105       0.00618166
Pt       1.40649898       2.43212815      26.91446906        1      -0.01136687      -0.00500428       0.00932616
Pt       4.21103130       2.42835611      26.92246606        1      -0.00134500       0.02295774      -0.02955034
Pt       7.01570837       2.43312171      26.91447138        1       0.01005305      -0.00739639       0.00934493
Pt       2.80472590       4.86343185      26.92246138        1       0.02052371      -0.01033646      -0.02952256
Pt       5.61671018       4.86379990      26.92245534        1      -0.01920467      -0.01268181      -0.02948881
Pt       8.42226284       4.85652365      26.91380148        1      -0.00311246       0.03950185       0.00623168
C        8.42164195       1.62074772      32.27876573        0       0.00000000      -0.00000112      -0.03159959
O        8.42164012       1.62074273      33.45974938        0      -0.00000002       0.00000011       0.02457016
O        8.42164407       1.62075256      31.09822363        0       0.00000013       0.00000032       0.00530049
