39
Lattice="8.421641763931781 0.0 0.0 4.2108208819658905 7.293355709136913 0.0 0.0 0.0 46.87624170604845" Properties=species:S:1:pos:R:3:tags:I:1:forces:R:3 charge=0 spin=0 energy=-209.36804484461743 free_energy=-209.36804484461743 stress="0.010483440943062305 1.8291779202428415e-09 2.8348208225281724e-09 1.8291779202428415e-09 0.0104834558442235 -6.173050337565655e-08 2.8348208225281724e-09 -6.173050337565655e-08 -7.09195010131225e-05" pbc="T T T"
Pt      -0.00000001       0.00000022      19.95723425        4       0.00015332       0.00028459       0.01501073
Pt       2.80721397      -0.00000009      19.95723437        4       0.00017274       0.00011960       0.01520696
Pt       5.61442779      -0.00000006      19.95723442        4       0.00001362      -0.00020642       0.01519650
Pt       1.40360720       2.43111836      19.95723428        4      -0.00032447      -0.00001117       0.01501423
Pt       4.21082081       2.43111834      19.95723435        4      -0.00000174       0.00067250       0.01560736
Pt       7.01803481       2.43111842      19.95723424        4       0.00017212      -0.00027224       0.01501289
Pt       2.80721405       4.86223723      19.95723396        4       0.00058255      -0.00033559       0.01560511
Pt       5.61442805       4.86223729      19.95723414        4      -0.00058014      -0.00034196       0.01560553
Pt       8.42164141       4.86223719      19.95723428        4      -0.00018814       0.00009170       0.01520613
Pt       1.40360726       0.81037260      22.29206791        3      -0.00099402       0.00041036      -0.04780889
Pt       4.21082130       0.81037249      22.29206785        3      -0.00037339      -0.00012528      -0.04312461
Pt       7.01803472       0.81037257      22.29206783        3       0.00085399       0.00065237      -0.04780645
Pt       2.80721450       3.24149124      22.29206777        3      -0.00077382      -0.00006677      -0.04420854
Pt       5.61442762       3.24149124      22.29206789        3       0.00044777      -0.00062688      -0.04420538
Pt       8.42164156       3.24149128      22.29206809        3       0.00014571      -0.00105721      -0.04780788
Pt       4.21082092       5.67260996      22.29206799        3       0.00031906       0.00070162      -0.04421801
Pt       7.01803487       5.67261037      22.29206782        3       0.00029175      -0.00025779      -0.04313396
Pt       9.82524820       5.67261064      22.29206809        3       0.00008174       0.00037402      -0.04313808
Pt      -0.00000052       1.62074570      24.58417379        2      -0.00000536       0.00000522       0.02646542
Pt       2.80721442       1.62074548      24.58417394        2       0.01081953       0.00604370       0.02977161
Pt       5.61442780       1.62074537      24.58417373        2      -0.01072247       0.00608996       0.02862162
Pt       1.40360637       4.05186438      24.58417386        2       0.01064737       0.00623982       0.02858540
Pt       4.21082089       4.05186400      24.58417379        2      -0.00000383      -0.00001878       0.06777029
Pt       7.01803504       4.05186405      24.58417405        2      -0.01062799       0.00635107       0.02972266
Pt       2.80721281       6.48298343      24.58417366        2      -0.00018605      -0.01240060       0.02970035
Pt       5.61442797       6.48298326      24.58417386        2       0.00008328      -0.01233163       0.02851838
Pt       8.42164223       6.48298340      24.58417377        2       0.00000150      -0.00000080       0.04253427
Pt      -0.00056721      -0.00302039      26.91446216        1       0.00131343       0.01243872       0.00933583
Pt       2.80194924       0.00231524      26.91379857        1       0.03585398      -0.01700653       0.00619301
Pt       5.61907505       0.00339038      26.91380762        1      -0.03272132      -0.02244992       0.00618033
Pt       1.40649914       2.43212830      26.91447156        1      -0.01136827      -0.00500693       0.00931643
Pt       4.21103200       2.42835663      26.92246937        1      -0.00134684       0.02295045      -0.02956374
Pt       7.01570787       2.43312193      26.91447394        1       0.01005628      -0.00739904       0.00932739
Pt       2.80472604       4.86343095      26.92245847        1       0.02052131      -0.01033235      -0.02951251
Pt       5.61670985       4.86379903      26.92245237        1      -0.01920125      -0.01267707      -0.02947861
Pt       8.42226334       4.85652333      26.91380207        1      -0.00311140       0.03949967       0.00623011
C        8.42164152       1.62074761      32.27877650        0       0.00000677      -0.00000152      -0.03093840
O        8.42163989       1.62074258      33.45976566        0      -0.00000371       0.00000046       0.02422894
O        8.42164406       1.62075235      31.09823764        0      -0.00000361       0.00000063       0.00497810
