39
Lattice="8.421641763931781 0.0 0.0 4.2108208819658905 7.293355709136913 0.0 0.0 0.0 46.87624170604845" Properties=species:S:1:pos:R:3:tags:I:1:forces:R:3 charge=0 spin=0 energy=-209.3676528844734 free_energy=-209.3676528844734 stress="0.010384576395154 6.449762252058733e-11 -6.955747977599458e-09 6.449762252058733e-11 0.01038460060954094 -7.137229829368152e-08 -6.955747977599458e-09 -7.137229829368152e-08 -0.0002627265057526529" pbc="T T T"
Pt      -0.00000001       0.00000022      19.95723425        4       0.00004833      -0.00001226       0.01509232
Pt       2.80721397      -0.00000009      19.95723437        4      -0.00026267       0.00035732       0.01508963
Pt       5.61442779      -0.00000006      19.95723442        4       0.00043534       0.00005511       0.01508187
Pt       1.40360720       2.43111836      19.95723428        4      -0.00001469       0.00004537       0.01509088
Pt       4.21082081       2.43111834      19.95723435        4       0.00013592      -0.00048325       0.01549404
Pt       7.01803481       2.43111842      19.95723424        4      -0.00003266      -0.00003257       0.01509220
Pt       2.80721405       4.86223723      19.95723396        4      -0.00048958       0.00012249       0.01550108
Pt       5.61442805       4.86223729      19.95723414        4       0.00035492       0.00035486       0.01550081
Pt       8.42164141       4.86223719      19.95723428        4      -0.00017498      -0.00040817       0.01509504
Pt       1.40360726       0.81037260      22.29206791        3       0.00036971       0.00022568      -0.04344844
Pt       4.21082130       0.81037249      22.29206785        3      -0.00042239       0.00031753      -0.04302797
Pt       7.01803472       0.81037257      22.29206783        3       0.00001024      -0.00043675      -0.04344428
Pt       2.80721450       3.24149124      22.29206777        3       0.00034131       0.00035133      -0.04678436
Pt       5.61442762       3.24149124      22.29206789        3      -0.00047520       0.00012988      -0.04677663
Pt       8.42164156       3.24149128      22.29206809        3      -0.00037785       0.00021425      -0.04343621
Pt       4.21082092       5.67260996      22.29206799        3       0.00012619      -0.00047499      -0.04678147
Pt       7.01803487       5.67261037      22.29206782        3      -0.00006568      -0.00051711      -0.04301651
Pt       9.82524820       5.67261064      22.29206809        3       0.00048686       0.00019492      -0.04302102
Pt      -0.00000052       1.62074570      24.58417379        2       0.00000280       0.00000991       0.00264950
Pt       2.80721442       1.62074548      24.58417394        2      -0.00520529      -0.00664583       0.01503751
Pt       5.61442780       1.62074537      24.58417373        2       0.00535898      -0.00667127       0.01523696
Pt       1.40360637       4.05186438      24.58417386        2      -0.00845430      -0.00129975       0.01518985
Pt       4.21082089       4.05186400      24.58417379        2       0.00000937       0.00001319      -0.01680141
Pt       7.01803504       4.05186405      24.58417405        2       0.00836031      -0.00117892       0.01499683
Pt       2.80721281       6.48298343      24.58417366        2      -0.00315528       0.00782811       0.01499730
Pt       5.61442797       6.48298326      24.58417386        2       0.00310126       0.00797784       0.01520627
Pt       8.42164223       6.48298340      24.58417377        2      -0.00001194      -0.00001222       0.01498198
Pt      -0.00042249       0.00310361      26.91351795        1       0.00144188      -0.01506977       0.00894989
Pt       2.81042382      -0.00203038      26.91564394        1      -0.01996033       0.01240734       0.00252461
Pt       5.61105744      -0.00175228      26.91564077        1       0.02073104       0.01103948       0.00255366
Pt       1.40113613       2.42920360      26.91352261        1       0.01233223       0.00876756       0.00894616
Pt       4.21061325       2.43318007      26.90628638        1       0.00093569      -0.01927948       0.04272369
Pt       7.02092995       2.42993263      26.91352412        1      -0.01377660       0.00627747       0.00894824
Pt       2.80909264       4.86138856      26.90628292        1      -0.01712217       0.00884562       0.04273285
Pt       5.61275459       4.86102821      26.90628918        1       0.01619770       0.01046578       0.04269551
Pt       8.42180047       4.86602596      26.91564371        1      -0.00077809      -0.02347858       0.00254948
C        8.42164289       1.62074572      32.17091500        0      -0.00000609       0.00000923       0.02239287
O        8.42163988       1.62074361      33.35209805        0       0.00000296      -0.00000429       0.00634544
O        8.42164648       1.62074896      30.99064363        0       0.00000293      -0.00000485      -0.02015821
