39
Lattice="8.421641763931781 0.0 0.0 4.2108208819658905 7.293355709136913 0.0 0.0 0.0 46.87624170604845" Properties=species:S:1:pos:R:3:tags:I:1:forces:R:3 charge=0 spin=0 energy=-209.36511515711743 free_energy=-209.36511515711743 stress="0.010441463440656662 4.167985956371467e-09 5.168030003943613e-09 4.167985956371467e-09 0.01044149324297905 5.006778991401006e-09 5.168030003943613e-09 5.006778991401006e-09 -0.00016258303367067128" pbc="T T T"
Pt      -0.00000001       0.00000022      19.95723425        4       0.00000267      -0.00000249       0.01507318
Pt       2.80721397      -0.00000009      19.95723437        4      -0.00005307       0.00025303       0.01553185
Pt       5.61442779      -0.00000006      19.95723442        4       0.00019388      -0.00006534       0.01544415
Pt       1.40360720       2.43111836      19.95723428        4      -0.00015939      -0.00013284       0.01545492
Pt       4.21082081       2.43111834      19.95723435        4       0.00000188       0.00000208       0.01537846
Pt       7.01803481       2.43111842      19.95723424        4      -0.00019210      -0.00016857       0.01553520
Pt       2.80721405       4.86223723      19.95723396        4       0.00024166      -0.00008413       0.01553113
Pt       5.61442805       4.86223729      19.95723414        4      -0.00003688       0.00020106       0.01545409
Pt       8.42164141       4.86223719      19.95723428        4       0.00000130      -0.00000044       0.01496947
Pt       1.40360726       0.81037260      22.29206791        3      -0.00043390       0.00007136      -0.04624947
Pt       4.21082130       0.81037249      22.29206785        3      -0.00041443      -0.00000351      -0.04576437
Pt       7.01803472       0.81037257      22.29206783        3       0.00015665      -0.00040893      -0.04624850
Pt       2.80721450       3.24149124      22.29206777        3       0.00018821       0.00036955      -0.04577313
Pt       5.61442762       3.24149124      22.29206789        3       0.00022043      -0.00034664      -0.04577002
Pt       8.42164156       3.24149128      22.29206809        3       0.00021197      -0.00190622      -0.04120426
Pt       4.21082092       5.67260996      22.29206799        3       0.00027488       0.00034116      -0.04626738
Pt       7.01803487       5.67261037      22.29206782        3      -0.00176133       0.00076998      -0.04120826
Pt       9.82524820       5.67261064      22.29206809        3       0.00155542       0.00112712      -0.04121077
Pt      -0.00000052       1.62074570      24.58417379        2      -0.00015182       0.00590015       0.01280097
Pt       2.80721442       1.62074548      24.58417394        2       0.00120863       0.00045671       0.02747799
Pt       5.61442780       1.62074537      24.58417373        2      -0.00103074       0.00076402       0.02746860
Pt       1.40360637       4.05186438      24.58417386        2      -0.00003141       0.00017388       0.02198275
Pt       4.21082089       4.05186400      24.58417379        2      -0.00019471      -0.00128592       0.02735955
Pt       7.01803504       4.05186405      24.58417405        2       0.00017781      -0.00005864       0.02195624
Pt       2.80721281       6.48298343      24.58417366        2      -0.00504565      -0.00308870       0.01283700
Pt       5.61442797       6.48298326      24.58417386        2       0.00521989      -0.00277095       0.01282527
Pt       8.42164223       6.48298340      24.58417377        2      -0.00014814      -0.00012894       0.02209862
Pt       0.00000028       0.00000106      26.91089558        1      -0.00000557      -0.00001544       0.00629591
Pt       2.80746369      -0.00159275      26.91476675        1      -0.00145950       0.01318685       0.00844591
Pt       5.61473181      -0.00099832      26.91487467        1      -0.00033394       0.01124076       0.00818153
Pt       1.40259786       2.43133369      26.91485641        1       0.00991167      -0.00536295       0.00824911
Pt       4.21081934       2.43113001      26.91439415        1       0.00001042      -0.00010829       0.00494053
Pt       7.01928740       2.43211060      26.91473861        1      -0.01068101      -0.00789670       0.00855729
Pt       2.80571954       4.86282275      26.91473508        1       0.01208587      -0.00528004       0.00856321
Pt       5.61512691       4.86300448      26.91483522        1      -0.00953559      -0.00586934       0.00832252
Pt       8.42164173       4.86220945      26.91392115        1       0.00000804       0.00013176       0.01214430
C        0.00000198       0.00003118      31.98220992        0      -0.00000416       0.00005903      -0.03258406
O       -0.00000069      -0.00003081      33.16309467        0       0.00000084      -0.00003295       0.02281588
O        0.00000573       0.00010318      30.80169751        0       0.00000094      -0.00003065       0.01058436
