39
Lattice="8.421641763931781 0.0 0.0 4.2108208819658905 7.293355709136913 0.0 0.0 0.0 46.87624170604845" Properties=species:S:1:pos:R:3:tags:I:1:forces:R:3 charge=0 spin=0 energy=-209.36504172419507 free_energy=-209.36504172419507 stress="0.010491692461073399 6.190563617280986e-10 4.388909236041627e-09 6.190563617280986e-10 0.010491696186363697 -6.542997699199304e-09 4.388909236041627e-09 -6.542997699199304e-09 -4.650044138543308e-05" pbc="T T T"
Pt      -0.00000001       0.00000022      19.95723425        4       0.00000269      -0.00000164       0.01519693
Pt       2.80721397      -0.00000009      19.95723437        4       0.00004732       0.00031194       0.01563391
Pt       5.61442779      -0.00000006      19.95723442        4       0.00005703      -0.00004961       0.01553437
Pt       1.40360720       2.43111836      19.95723428        4      -0.00007674      -0.00002229       0.01554298
Pt       4.21082081       2.43111834      19.95723435        4       0.00000157       0.00000077       0.01529614
Pt       7.01803481       2.43111842      19.95723424        4      -0.00029403      -0.00011091       0.01563492
Pt       2.80721405       4.86223723      19.95723396        4       0.00024420      -0.00020130       0.01563329
Pt       5.61442805       4.86223729      19.95723414        4       0.00001710       0.00007352       0.01554383
Pt       8.42164141       4.86223719      19.95723428        4       0.00000125      -0.00000104       0.01502714
Pt       1.40360726       0.81037260      22.29206791        3      -0.00067817      -0.00010407      -0.04703159
Pt       4.21082130       0.81037249      22.29206785        3      -0.00036154      -0.00026747      -0.04508014
Pt       7.01803472       0.81037257      22.29206783        3       0.00042915      -0.00053106      -0.04702818
Pt       2.80721450       3.24149124      22.29206777        3      -0.00006304       0.00044762      -0.04508857
Pt       5.61442762       3.24149124      22.29206789        3       0.00041754      -0.00017065      -0.04508271
Pt       8.42164156       3.24149128      22.29206809        3       0.00019965      -0.00201192      -0.04156770
Pt       4.21082092       5.67260996      22.29206799        3       0.00024649       0.00064267      -0.04704086
Pt       7.01803487       5.67261037      22.29206782        3      -0.00184366       0.00083176      -0.04156971
Pt       9.82524820       5.67261064      22.29206809        3       0.00165138       0.00116426      -0.04157110
Pt      -0.00000052       1.62074570      24.58417379        2      -0.00021928       0.00554577       0.03315011
Pt       2.80721442       1.62074548      24.58417394        2       0.00066949       0.00026655       0.03701197
Pt       5.61442780       1.62074537      24.58417373        2      -0.00055926       0.00045242       0.03700650
Pt       1.40360637       4.05186438      24.58417386        2       0.00320618      -0.00110423       0.02935540
Pt       4.21082089       4.05186400      24.58417379        2      -0.00011623      -0.00070543       0.03696764
Pt       7.01803504       4.05186405      24.58417405        2      -0.00255943      -0.00222800       0.02936292
Pt       2.80721281       6.48298343      24.58417366        2      -0.00468178      -0.00298242       0.03314768
Pt       5.61442797       6.48298326      24.58417386        2       0.00492266      -0.00256711       0.03314608
Pt       8.42164223       6.48298340      24.58417377        2      -0.00065936       0.00331945       0.02939755
Pt       0.00000118      -0.00000046      26.91474361        1      -0.00000774      -0.00000442      -0.01707491
Pt       2.80875788       0.00008330      26.91798650        1      -0.01489008       0.00157038      -0.00675702
Pt       5.61307249       0.00026485      26.91787617        1       0.01451507       0.00126743      -0.00596820
Pt       1.40451640       2.43215730      26.91787543        1      -0.00614084      -0.01324104      -0.00600662
Pt       4.21082306       2.43112023      26.91733891        1       0.00000134      -0.00000322      -0.00257671
Pt       7.01719846       2.43240601      26.91798638        1       0.00606568      -0.01368764      -0.00679691
Pt       2.80650691       4.86086163      26.91798213        1       0.00881856       0.01214597      -0.00679074
Pt       5.61487362       4.86093612      26.91787017        1      -0.00836106       0.01195237      -0.00601618
Pt       8.42163954       4.86223674      26.91255061        1      -0.00000039       0.00000072       0.01740262
C        0.00000101      -0.00000145      31.96685183        0      -0.00001013       0.00000374      -0.00026104
O        0.00000006       0.00000183      33.14827463        0       0.00000409      -0.00000129      -0.03054173
O        0.00000137      -0.00000499      30.78611977        0       0.00000401      -0.00000047       0.03485894
