39
Lattice="8.421641763931781 0.0 0.0 4.2108208819658905 7.293355709136913 0.0 0.0 0.0 46.87624170604845" Properties=species:S:1:pos:R:3:tags:I:1:forces:R:3 charge=0 spin=0 energy=-209.36504172419507 free_energy=-209.36504172419507 stress="0.01049169059842825 -3.135729453873637e-09 -5.003179204265962e-09 -3.135729453873637e-09 0.01049170084297657 -6.622185910742928e-09 -5.003179204265962e-09 -6.622185910742928e-09 -4.666307722800411e-05" pbc="T T T"
Pt      -0.00000001       0.00000022      19.95723425        4       0.00000265      -0.00000149       0.01519678
Pt       2.80721397      -0.00000009      19.95723437        4       0.00004733       0.00031200       0.01563388
Pt       5.61442779      -0.00000006      19.95723442        4       0.00005712      -0.00004962       0.01553441
Pt       1.40360720       2.43111836      19.95723428        4      -0.00007692      -0.00002236       0.01554302
Pt       4.21082081       2.43111834      19.95723435        4       0.00000173       0.00000084       0.01529597
Pt       7.01803481       2.43111842      19.95723424        4      -0.00029410      -0.00011103       0.01563503
Pt       2.80721405       4.86223723      19.95723396        4       0.00024416      -0.00020134       0.01563325
Pt       5.61442805       4.86223729      19.95723414        4       0.00001699       0.00007360       0.01554398
Pt       8.42164141       4.86223719      19.95723428        4       0.00000128      -0.00000096       0.01502712
Pt       1.40360726       0.81037260      22.29206791        3      -0.00067797      -0.00010408      -0.04703282
Pt       4.21082130       0.81037249      22.29206785        3      -0.00036171      -0.00026733      -0.04507988
Pt       7.01803472       0.81037257      22.29206783        3       0.00042921      -0.00053104      -0.04702793
Pt       2.80721450       3.24149124      22.29206777        3      -0.00006290       0.00044758      -0.04508859
Pt       5.61442762       3.24149124      22.29206789        3       0.00041752      -0.00017082      -0.04508265
Pt       8.42164156       3.24149128      22.29206809        3       0.00019974      -0.00201225      -0.04156716
Pt       4.21082092       5.67260996      22.29206799        3       0.00024660       0.00064257      -0.04704095
Pt       7.01803487       5.67261037      22.29206782        3      -0.00184396       0.00083174      -0.04156950
Pt       9.82524820       5.67261064      22.29206809        3       0.00165184       0.00116438      -0.04157007
Pt      -0.00000052       1.62074570      24.58417379        2      -0.00022113       0.00555083       0.03314557
Pt       2.80721442       1.62074548      24.58417394        2       0.00067000       0.00026679       0.03701341
Pt       5.61442780       1.62074537      24.58417373        2      -0.00055827       0.00045202       0.03701314
Pt       1.40360637       4.05186438      24.58417386        2       0.00320617      -0.00110421       0.02935521
Pt       4.21082089       4.05186400      24.58417379        2      -0.00011474      -0.00070536       0.03697070
Pt       7.01803504       4.05186405      24.58417405        2      -0.00256088      -0.00222941       0.02936728
Pt       2.80721281       6.48298343      24.58417366        2      -0.00468665      -0.00298328       0.03314367
Pt       5.61442797       6.48298326      24.58417386        2       0.00492682      -0.00257065       0.03314186
Pt       8.42164223       6.48298340      24.58417377        2      -0.00065753       0.00332036       0.02939977
Pt       0.00000105      -0.00000048      26.91474024        1      -0.00000701      -0.00000416      -0.01705841
Pt       2.80875775       0.00008292      26.91798631        1      -0.01488497       0.00157276      -0.00676029
Pt       5.61307295       0.00026428      26.91787645        1       0.01450391       0.00127340      -0.00598752
Pt       1.40451589       2.43215717      26.91787578        1      -0.00613671      -0.01324079      -0.00600518
Pt       4.21082309       2.43112033      26.91733914        1       0.00000347      -0.00000437      -0.00257796
Pt       7.01719883       2.43240588      26.91798707        1       0.00606001      -0.01368626      -0.00680380
Pt       2.80650698       4.86086232      26.91798254        1       0.00881812       0.01213927      -0.00679421
Pt       5.61487364       4.86093661      26.91787056        1      -0.00836179       0.01194935      -0.00601945
Pt       8.42163961       4.86223677      26.91255041        1      -0.00000113       0.00000071       0.01740390
C        0.00000085      -0.00000141      31.96680652        0      -0.00000034      -0.00000476       0.00008873
O        0.00000003       0.00000166      33.14822768        0       0.00000189       0.00000326      -0.03052316
O        0.00000126      -0.00000493      30.78607665        0       0.00000218       0.00000412       0.03450245
