39
Lattice="8.421641763931781 0.0 0.0 4.2108208819658905 7.293355709136913 0.0 0.0 0.0 46.87624170604845" Properties=species:S:1:pos:R:3:tags:I:1:forces:R:3 charge=0 spin=0 energy=-209.3651189718147 free_energy=-209.3651189718147 stress="0.010441475547850132 4.314983037545517e-09 -5.047667173130321e-09 4.314983037545517e-09 0.01044151559472084 1.5714837431346496e-08 -5.047667173130321e-09 1.5714837431346496e-08 -0.00016268658509943634" pbc="T T T"
Pt      -0.00000001       0.00000022      19.95723425        4       0.00000268      -0.00000247       0.01507297
Pt       2.80721397      -0.00000009      19.95723437        4      -0.00005350       0.00025302       0.01553185
Pt       5.61442779      -0.00000006      19.95723442        4       0.00019413      -0.00006517       0.01544408
Pt       1.40360720       2.43111836      19.95723428        4      -0.00015933      -0.00013299       0.01545505
Pt       4.21082081       2.43111834      19.95723435        4       0.00000176       0.00000214       0.01537865
Pt       7.01803481       2.43111842      19.95723424        4      -0.00019178      -0.00016888       0.01553550
Pt       2.80721405       4.86223723      19.95723396        4       0.00024193      -0.00008382       0.01553106
Pt       5.61442805       4.86223729      19.95723414        4      -0.00003724       0.00020131       0.01545430
Pt       8.42164141       4.86223719      19.95723428        4       0.00000132      -0.00000031       0.01496947
Pt       1.40360726       0.81037260      22.29206791        3      -0.00043339       0.00007131      -0.04624767
Pt       4.21082130       0.81037249      22.29206785        3      -0.00041444      -0.00000354      -0.04576411
Pt       7.01803472       0.81037257      22.29206783        3       0.00015618      -0.00040846      -0.04624545
Pt       2.80721450       3.24149124      22.29206777        3       0.00018768       0.00036987      -0.04577260
Pt       5.61442762       3.24149124      22.29206789        3       0.00022090      -0.00034565      -0.04576911
Pt       8.42164156       3.24149128      22.29206809        3       0.00021170      -0.00190474      -0.04120675
Pt       4.21082092       5.67260996      22.29206799        3       0.00027542       0.00034121      -0.04626536
Pt       7.01803487       5.67261037      22.29206782        3      -0.00176074       0.00076976      -0.04121161
Pt       9.82524820       5.67261064      22.29206809        3       0.00155405       0.00112673      -0.04121358
Pt      -0.00000052       1.62074570      24.58417379        2      -0.00015323       0.00589034       0.01281297
Pt       2.80721442       1.62074548      24.58417394        2       0.00120461       0.00045385       0.02748174
Pt       5.61442780       1.62074537      24.58417373        2      -0.00102472       0.00076294       0.02747615
Pt       1.40360637       4.05186438      24.58417386        2      -0.00002161       0.00016531       0.02197877
Pt       4.21082089       4.05186400      24.58417379        2      -0.00019348      -0.00128284       0.02736375
Pt       7.01803504       4.05186405      24.58417405        2       0.00016676      -0.00006754       0.02196014
Pt       2.80721281       6.48298343      24.58417366        2      -0.00503544      -0.00308178       0.01284356
Pt       5.61442797       6.48298326      24.58417386        2       0.00521012      -0.00276646       0.01283775
Pt       8.42164223       6.48298340      24.58417377        2      -0.00014844      -0.00011742       0.02210037
Pt      -0.00000001       0.00000132      26.91090563        1       0.00000170      -0.00002162       0.00626307
Pt       2.80746055      -0.00159490      26.91476890        1      -0.00143992       0.01319399       0.00843865
Pt       5.61473583      -0.00100066      26.91487608        1      -0.00036221       0.01125477       0.00816904
Pt       1.40259567       2.43133040      26.91485811        1       0.00992803      -0.00535005       0.00824143
Pt       4.21081924       2.43112854      26.91439000        1       0.00001306      -0.00010507       0.00495111
Pt       7.01929033       2.43210779      26.91474105        1      -0.01070367      -0.00787951       0.00853624
Pt       2.80571986       4.86282547      26.91473667        1       0.01209305      -0.00530208       0.00856936
Pt       5.61512621       4.86300760      26.91483720        1      -0.00953334      -0.00589079       0.00831520
Pt       8.42164196       4.86220794      26.91391402        1      -0.00000007       0.00013487       0.01217635
C        0.00000092       0.00004042      31.98224564        0       0.00000448       0.00006115      -0.03326467
O       -0.00000149      -0.00003828      33.16312592        0      -0.00000152      -0.00003706       0.02334480
O        0.00000333       0.00013064      30.80173142        0      -0.00000120      -0.00003433       0.01072737
