39
Lattice="8.421641763931781 0.0 0.0 4.2108208819658905 7.293355709136913 0.0 0.0 0.0 46.87624170604845" Properties=species:S:1:pos:R:3:tags:I:1:forces:R:3 charge=0 spin=0 energy=-209.3651189718147 free_energy=-209.3651189718147 stress="0.010441497899591923 3.7109721962025333e-09 8.073959278931397e-09 3.7109721962025333e-09 0.010441504418849945 -1.2082400857593711e-08 8.073959278931397e-09 -1.2082400857593711e-08 -0.00016270126798190176" pbc="T T T"
Pt      -0.00000001       0.00000022      19.95723425        4       0.00000275      -0.00000318       0.01507269
Pt       2.80721397      -0.00000009      19.95723437        4      -0.00005365       0.00025245       0.01553181
Pt       5.61442779      -0.00000006      19.95723442        4       0.00019420      -0.00006588       0.01544423
Pt       1.40360720       2.43111836      19.95723428        4      -0.00015943      -0.00013343       0.01545511
Pt       4.21082081       2.43111834      19.95723435        4       0.00000151       0.00000126       0.01537865
Pt       7.01803481       2.43111842      19.95723424        4      -0.00019175      -0.00016931       0.01553541
Pt       2.80721405       4.86223723      19.95723396        4       0.00024194      -0.00008441       0.01553079
Pt       5.61442805       4.86223729      19.95723414        4      -0.00003722       0.00020073       0.01545386
Pt       8.42164141       4.86223719      19.95723428        4       0.00000126      -0.00000042       0.01496947
Pt       1.40360726       0.81037260      22.29206791        3      -0.00043391       0.00006935      -0.04624803
Pt       4.21082130       0.81037249      22.29206785        3      -0.00041427      -0.00000660      -0.04576305
Pt       7.01803472       0.81037257      22.29206783        3       0.00015636      -0.00040998      -0.04624674
Pt       2.80721450       3.24149124      22.29206777        3       0.00018758       0.00036707      -0.04577385
Pt       5.61442762       3.24149124      22.29206789        3       0.00022084      -0.00034865      -0.04577135
Pt       8.42164156       3.24149128      22.29206809        3       0.00021184      -0.00190653      -0.04120701
Pt       4.21082092       5.67260996      22.29206799        3       0.00027497       0.00033810      -0.04626479
Pt       7.01803487       5.67261037      22.29206782        3      -0.00176089       0.00076712      -0.04121070
Pt       9.82524820       5.67261064      22.29206809        3       0.00155442       0.00112454      -0.04121320
Pt      -0.00000052       1.62074570      24.58417379        2      -0.00014881       0.00588869       0.01282113
Pt       2.80721442       1.62074548      24.58417394        2       0.00120520       0.00046085       0.02748788
Pt       5.61442780       1.62074537      24.58417373        2      -0.00102809       0.00076734       0.02747390
Pt       1.40360637       4.05186438      24.58417386        2      -0.00002466       0.00017225       0.02198530
Pt       4.21082089       4.05186400      24.58417379        2      -0.00019522      -0.00127223       0.02735731
Pt       7.01803504       4.05186405      24.58417405        2       0.00017320      -0.00005725       0.02195799
Pt       2.80721281       6.48298343      24.58417366        2      -0.00503888      -0.00307755       0.01284309
Pt       5.61442797       6.48298326      24.58417386        2       0.00521362      -0.00275855       0.01283601
Pt       8.42164223       6.48298340      24.58417377        2      -0.00014801      -0.00010829       0.02209603
Pt      -0.00000029      -0.00000125      26.91090503        1       0.00000568       0.00003657       0.00626298
Pt       2.80746204      -0.00158536      26.91476770        1      -0.00144334       0.01319921       0.00843284
Pt       5.61473571      -0.00099097      26.91487636        1      -0.00035451       0.01125582       0.00817349
Pt       1.40259465       2.43133865      26.91485731        1       0.00992490      -0.00536264       0.00824005
Pt       4.21082048       2.43114356      26.91439111        1       0.00000500      -0.00014519       0.00495113
Pt       7.01929251       2.43211598      26.91473831        1      -0.01069283      -0.00789750       0.00856060
Pt       2.80571938       4.86283189      26.91473784        1       0.01208737      -0.00530686       0.00855504
Pt       5.61512881       4.86301395      26.91483711        1      -0.00953379      -0.00588808       0.00831427
Pt       8.42164310       4.86222276      26.91391576        1       0.00000036       0.00009742       0.01216954
C       -0.00000578      -0.00004273      31.98231133        0      -0.00001006      -0.00009514      -0.03259594
O        0.00000621       0.00004648      33.16319196        0       0.00000341       0.00005151       0.02301495
O       -0.00001923      -0.00014745      30.80179889        0       0.00000268       0.00004741       0.01038954
