39
Lattice="8.421641763931781 0.0 0.0 4.2108208819658905 7.293355709136913 0.0 0.0 0.0 46.87624170604845" Properties=species:S:1:pos:R:3:tags:I:1:forces:R:3 charge=0 spin=0 energy=-209.3650436315437 free_energy=-209.3650436315437 stress="0.010491692461073399 -2.0521291332897817e-09 6.713887223952497e-09 -2.0521291332897817e-09 0.010491698980331421 -2.8783764260964517e-09 6.713887223952497e-09 -2.8783764260964517e-09 -4.649339825846255e-05" pbc="T T T"
Pt      -0.00000001       0.00000022      19.95723425        4       0.00000269      -0.00000168       0.01519682
Pt       2.80721397      -0.00000009      19.95723437        4       0.00004750       0.00031207       0.01563395
Pt       5.61442779      -0.00000006      19.95723442        4       0.00005703      -0.00004960       0.01553446
Pt       1.40360720       2.43111836      19.95723428        4      -0.00007678      -0.00002240       0.01554296
Pt       4.21082081       2.43111834      19.95723435        4       0.00000170       0.00000077       0.01529612
Pt       7.01803481       2.43111842      19.95723424        4      -0.00029403      -0.00011089       0.01563484
Pt       2.80721405       4.86223723      19.95723396        4       0.00024439      -0.00020121       0.01563318
Pt       5.61442805       4.86223729      19.95723414        4       0.00001692       0.00007345       0.01554391
Pt       8.42164141       4.86223719      19.95723428        4       0.00000133      -0.00000103       0.01502727
Pt       1.40360726       0.81037260      22.29206791        3      -0.00067808      -0.00010418      -0.04703150
Pt       4.21082130       0.81037249      22.29206785        3      -0.00036174      -0.00026793      -0.04507904
Pt       7.01803472       0.81037257      22.29206783        3       0.00042906      -0.00053112      -0.04702811
Pt       2.80721450       3.24149124      22.29206777        3      -0.00006307       0.00044756      -0.04508857
Pt       5.61442762       3.24149124      22.29206789        3       0.00041743      -0.00017033      -0.04508318
Pt       8.42164156       3.24149128      22.29206809        3       0.00019961      -0.00201195      -0.04156733
Pt       4.21082092       5.67260996      22.29206799        3       0.00024660       0.00064258      -0.04704104
Pt       7.01803487       5.67261037      22.29206782        3      -0.00184361       0.00083197      -0.04156969
Pt       9.82524820       5.67261064      22.29206809        3       0.00165146       0.00116426      -0.04157091
Pt      -0.00000052       1.62074570      24.58417379        2      -0.00021921       0.00554577       0.03314962
Pt       2.80721442       1.62074548      24.58417394        2       0.00066965       0.00026644       0.03701302
Pt       5.61442780       1.62074537      24.58417373        2      -0.00055958       0.00045052       0.03700978
Pt       1.40360637       4.05186438      24.58417386        2       0.00320623      -0.00110400       0.02935499
Pt       4.21082089       4.05186400      24.58417379        2      -0.00011634      -0.00070573       0.03696754
Pt       7.01803504       4.05186405      24.58417405        2      -0.00255959      -0.00222826       0.02936217
Pt       2.80721281       6.48298343      24.58417366        2      -0.00468344      -0.00298150       0.03314999
Pt       5.61442797       6.48298326      24.58417386        2       0.00492270      -0.00256690       0.03314602
Pt       8.42164223       6.48298340      24.58417377        2      -0.00065694       0.00332046       0.02940096
Pt       0.00000106      -0.00000046      26.91474248        1      -0.00000799      -0.00000488      -0.01707631
Pt       2.80875785       0.00008315      26.91798681        1      -0.01488313       0.00157138      -0.00676571
Pt       5.61307266       0.00026472      26.91787663        1       0.01450918       0.00126776      -0.00598179
Pt       1.40451619       2.43215732      26.91787552        1      -0.00614016      -0.01324284      -0.00600448
Pt       4.21082291       2.43112034      26.91733923        1       0.00000155      -0.00000590      -0.00257752
Pt       7.01719840       2.43240608      26.91798637        1       0.00606545      -0.01369065      -0.00679487
Pt       2.80650698       4.86086163      26.91798225        1       0.00881919       0.01214884      -0.00678696
Pt       5.61487355       4.86093604      26.91787030        1      -0.00836259       0.01195454      -0.00601252
Pt       8.42163962       4.86223656      26.91255056        1       0.00000071       0.00000414       0.01740201
C        0.00000097      -0.00000131      31.96682320        0       0.00000287      -0.00000321       0.00007669
O        0.00000006       0.00000147      33.14824602        0      -0.00000332       0.00000142      -0.03071052
O        0.00000178      -0.00000449      30.78609362        0      -0.00000344       0.00000212       0.03469371
