39
Lattice="8.421641763931781 0.0 0.0 4.2108208819658905 7.293355709136913 0.0 0.0 0.0 46.87624170604845" Properties=species:S:1:pos:R:3:tags:I:1:forces:R:3 charge=0 spin=0 energy=-209.36511515711743 free_energy=-209.36511515711743 stress="0.010441473685204983 1.488875356336905e-09 1.2926567372062436e-08 1.488875356336905e-09 0.010441485792398453 -7.732105622437757e-09 1.2926567372062436e-08 -7.732105622437757e-09 -0.00016247390885837376" pbc="T T T"
Pt      -0.00000001       0.00000022      19.95723425        4       0.00000284      -0.00000316       0.01507280
Pt       2.80721397      -0.00000009      19.95723437        4      -0.00005324       0.00025254       0.01553174
Pt       5.61442779      -0.00000006      19.95723442        4       0.00019414      -0.00006587       0.01544430
Pt       1.40360720       2.43111836      19.95723428        4      -0.00015939      -0.00013319       0.01545496
Pt       4.21082081       2.43111834      19.95723435        4       0.00000176       0.00000134       0.01537854
Pt       7.01803481       2.43111842      19.95723424        4      -0.00019197      -0.00016896       0.01553537
Pt       2.80721405       4.86223723      19.95723396        4       0.00024182      -0.00008465       0.01553081
Pt       5.61442805       4.86223729      19.95723414        4      -0.00003708       0.00020064       0.01545397
Pt       8.42164141       4.86223719      19.95723428        4       0.00000154      -0.00000053       0.01496959
Pt       1.40360726       0.81037260      22.29206791        3      -0.00043455       0.00006906      -0.04624909
Pt       4.21082130       0.81037249      22.29206785        3      -0.00041500      -0.00000624      -0.04576353
Pt       7.01803472       0.81037257      22.29206783        3       0.00015665      -0.00041037      -0.04624805
Pt       2.80721450       3.24149124      22.29206777        3       0.00018807       0.00036689      -0.04577358
Pt       5.61442762       3.24149124      22.29206789        3       0.00022032      -0.00034972      -0.04577092
Pt       8.42164156       3.24149128      22.29206809        3       0.00021156      -0.00190734      -0.04120513
Pt       4.21082092       5.67260996      22.29206799        3       0.00027495       0.00033861      -0.04626702
Pt       7.01803487       5.67261037      22.29206782        3      -0.00176168       0.00076705      -0.04120912
Pt       9.82524820       5.67261064      22.29206809        3       0.00155501       0.00112459      -0.04121085
Pt      -0.00000052       1.62074570      24.58417379        2      -0.00015093       0.00589790       0.01281056
Pt       2.80721442       1.62074548      24.58417394        2       0.00120995       0.00046434       0.02748464
Pt       5.61442780       1.62074537      24.58417373        2      -0.00103163       0.00077187       0.02747349
Pt       1.40360637       4.05186438      24.58417386        2      -0.00003083       0.00017655       0.02198245
Pt       4.21082089       4.05186400      24.58417379        2      -0.00019493      -0.00127799       0.02735448
Pt       7.01803504       4.05186405      24.58417405        2       0.00017953      -0.00005538       0.02195849
Pt       2.80721281       6.48298343      24.58417366        2      -0.00504574      -0.00308216       0.01282921
Pt       5.61442797       6.48298326      24.58417386        2       0.00522078      -0.00276259       0.01282402
Pt       8.42164223       6.48298340      24.58417377        2      -0.00014818      -0.00011587       0.02209333
Pt      -0.00000061      -0.00000111      26.91089736        1       0.00000762       0.00003710       0.00629144
Pt       2.80746345      -0.00158424      26.91476692        1      -0.00145036       0.01319288       0.00843836
Pt       5.61473373      -0.00099021      26.91487493        1      -0.00034239       0.01125138       0.00818874
Pt       1.40259621       2.43134029      26.91485654        1       0.00991529      -0.00537153       0.00825273
Pt       4.21082012       2.43114388      26.91439388        1       0.00000724      -0.00014645       0.00493762
Pt       7.01929101       2.43211686      26.91473780        1      -0.01068542      -0.00789897       0.00855946
Pt       2.80571890       4.86282997      26.91473528        1       0.01208635      -0.00529349       0.00856845
Pt       5.61512897       4.86301200      26.91483572        1      -0.00953342      -0.00587459       0.00832720
Pt       8.42164329       4.86222317      26.91391952        1      -0.00000160       0.00009539       0.01215306
C       -0.00000560      -0.00004309      31.98223816        0      -0.00001508      -0.00008817      -0.03244567
O        0.00000558       0.00004676      33.16312219        0       0.00000436       0.00004667       0.02264235
O       -0.00001800      -0.00014771      30.80172491        0       0.00000354       0.00004243       0.01060073
