39
Lattice="8.421641763931781 0.0 0.0 4.2108208819658905 7.293355709136913 0.0 0.0 0.0 46.87624170604845" Properties=species:S:1:pos:R:3:tags:I:1:forces:R:3 charge=0 spin=0 energy=-209.36504553889233 free_energy=-209.36504553889233 stress="0.01049167662858963 -1.3859509095937028e-09 -5.736239483411509e-09 -1.3859509095937028e-09 0.010491686873137951 -8.924921246489248e-09 -5.736239483411509e-09 -8.924921246489248e-09 -4.656082819565199e-05" pbc="T T T"
Pt      -0.00000001       0.00000022      19.95723425        4       0.00000253      -0.00000167       0.01519682
Pt       2.80721397      -0.00000009      19.95723437        4       0.00004738       0.00031203       0.01563399
Pt       5.61442779      -0.00000006      19.95723442        4       0.00005704      -0.00004967       0.01553452
Pt       1.40360720       2.43111836      19.95723428        4      -0.00007688      -0.00002228       0.01554313
Pt       4.21082081       2.43111834      19.95723435        4       0.00000152       0.00000088       0.01529629
Pt       7.01803481       2.43111842      19.95723424        4      -0.00029419      -0.00011089       0.01563497
Pt       2.80721405       4.86223723      19.95723396        4       0.00024433      -0.00020120       0.01563367
Pt       5.61442805       4.86223729      19.95723414        4       0.00001694       0.00007372       0.01554423
Pt       8.42164141       4.86223719      19.95723428        4       0.00000124      -0.00000101       0.01502727
Pt       1.40360726       0.81037260      22.29206791        3      -0.00067787      -0.00010410      -0.04703289
Pt       4.21082130       0.81037249      22.29206785        3      -0.00036174      -0.00026762      -0.04507903
Pt       7.01803472       0.81037257      22.29206783        3       0.00042943      -0.00053099      -0.04702844
Pt       2.80721450       3.24149124      22.29206777        3      -0.00006253       0.00044725      -0.04508816
Pt       5.61442762       3.24149124      22.29206789        3       0.00041735      -0.00017114      -0.04508267
Pt       8.42164156       3.24149128      22.29206809        3       0.00019978      -0.00201249      -0.04156659
Pt       4.21082092       5.67260996      22.29206799        3       0.00024647       0.00064244      -0.04704140
Pt       7.01803487       5.67261037      22.29206782        3      -0.00184401       0.00083169      -0.04156833
Pt       9.82524820       5.67261064      22.29206809        3       0.00165215       0.00116449      -0.04156955
Pt      -0.00000052       1.62074570      24.58417379        2      -0.00022059       0.00555711       0.03313505
Pt       2.80721442       1.62074548      24.58417394        2       0.00067044       0.00026744       0.03701383
Pt       5.61442780       1.62074537      24.58417373        2      -0.00055913       0.00045223       0.03701349
Pt       1.40360637       4.05186438      24.58417386        2       0.00320609      -0.00110409       0.02935550
Pt       4.21082089       4.05186400      24.58417379        2      -0.00011437      -0.00070558       0.03697227
Pt       7.01803504       4.05186405      24.58417405        2      -0.00256102      -0.00222948       0.02936711
Pt       2.80721281       6.48298343      24.58417366        2      -0.00469239      -0.00298627       0.03313263
Pt       5.61442797       6.48298326      24.58417386        2       0.00493186      -0.00257395       0.03313069
Pt       8.42164223       6.48298340      24.58417377        2      -0.00065728       0.00332041       0.02940081
Pt       0.00000101      -0.00000046      26.91473445        1      -0.00000692      -0.00000286      -0.01703259
Pt       2.80875681       0.00008262      26.91798664        1      -0.01487243       0.00157682      -0.00676317
Pt       5.61307381       0.00026399      26.91787644        1       0.01449124       0.00127469      -0.00599280
Pt       1.40451519       2.43215677      26.91787615        1      -0.00612966      -0.01323414      -0.00600768
Pt       4.21082300       2.43112036      26.91734021        1       0.00000363      -0.00000434      -0.00257885
Pt       7.01719954       2.43240551      26.91798708        1       0.00605345      -0.01367896      -0.00680670
Pt       2.80650710       4.86086313      26.91798242        1       0.00881517       0.01212772      -0.00679680
Pt       5.61487371       4.86093753      26.91787089        1      -0.00836181       0.01193744      -0.00602274
Pt       8.42163941       4.86223669      26.91255042        1      -0.00000030       0.00000325       0.01740356
C        0.00000093      -0.00000165      31.96675464        0       0.00000641      -0.00000169       0.00011880
O        0.00000013       0.00000156      33.14817628        0      -0.00000098       0.00000199      -0.03072103
O        0.00000138      -0.00000528      30.78602335        0      -0.00000062       0.00000289       0.03469083
