39
Lattice="8.421641763931781 0.0 0.0 4.2108208819658905 7.293355709136913 0.0 0.0 0.0 46.87624170604845" Properties=species:S:1:pos:R:3:tags:I:1:forces:R:3 charge=0 spin=0 energy=-90.3935441884895 free_energy=-90.3935441884895 stress="0.009751439094543457 -1.132380566559732e-05 -3.1821130050957436e-06 -1.132380566559732e-05 0.00974898412823677 -1.7105003280448727e-06 -3.1821130050957436e-06 -1.7105003280448727e-06 -0.0003842680889647454" pbc="T T T"
Pt      -0.00000001       0.00000022      19.95723425        4      -0.01156509      -0.01285461       0.01495091
Pt       2.80721397      -0.00000009      19.95723437        4       0.00008988       0.00024383       0.02109553
Pt       5.61442779      -0.00000006      19.95723442        4       0.00527663      -0.01358376       0.01567142
Pt       1.40360720       2.43111836      19.95723428        4       0.01001782       0.01152575       0.01530751
Pt       4.21082081       2.43111834      19.95723435        4      -0.00543596       0.01666609       0.01457422
Pt       7.01803481       2.43111842      19.95723424        4       0.00014968       0.00015296       0.01170786
Pt       2.80721405       4.86223723      19.95723396        4       0.00003169      -0.00001198      -0.05036861
Pt       5.61442805       4.86223729      19.95723414        4      -0.01406866       0.00242294       0.01544022
Pt       8.42164141       4.86223719      19.95723428        4       0.01744273      -0.00301258       0.01493721
Pt       1.40360726       0.81037260      22.29206791        3      -0.02738684      -0.00332075      -0.07498228
Pt       4.21082130       0.81037249      22.29206785        3       0.01166196       0.02630013      -0.07455361
Pt       7.01803472       0.81037257      22.29206783        3      -0.00114222       0.00781266      -0.06301588
Pt       2.80721450       3.24149124      22.29206777        3      -0.00128140       0.02858973      -0.05408622
Pt       5.61442762       3.24149124      22.29206789        3       0.00884547      -0.00102104      -0.06466942
Pt       8.42164156       3.24149128      22.29206809        3      -0.00437231      -0.00492097      -0.06594464
Pt       4.21082092       5.67260996      22.29206799        3      -0.02154920      -0.01558932      -0.05641932
Pt       7.01803487       5.67261037      22.29206782        3       0.01748872      -0.02159445      -0.07527342
Pt       9.82524820       5.67261064      22.29206809        3       0.02736066      -0.01010894      -0.05337508
Pt      -0.00000052       1.62074570      24.58417379        2      -0.02059359       0.01757682      -0.01114716
Pt       2.80721442       1.62074548      24.58417394        2       0.01283161      -0.09914964       0.21475288
Pt       5.61442780       1.62074537      24.58417373        2       0.02342530       0.00140586      -0.01017206
Pt       1.40360637       4.05186438      24.58417386        2       0.06611356       0.03859845      -0.05533702
Pt       4.21082089       4.05186400      24.58417379        2      -0.07604784       0.03493726      -0.05413031
Pt       7.01803504       4.05186405      24.58417405        2      -0.01339267      -0.02484720      -0.00508071
Pt       2.80721281       6.48298343      24.58417366        2      -0.00764798      -0.08138320      -0.04901786
Pt       5.61442797       6.48298326      24.58417386        2       0.07509983       0.05835175       0.21503721
Pt       8.42164223       6.48298340      24.58417377        2      -0.09070186       0.03632643       0.21612984
Pt       1.40247790       2.44125100      26.90427670        1       0.00206566       0.01187487       0.00846768
Pt       4.62634896       3.44149863      33.37766883        1       0.00779777       0.00110517       0.00142968
Pt       5.61943879      -0.00713280      26.90693648        1       0.01622510      -0.02034828       0.00086068
Pt       2.80013101       4.85894080      26.94292486        1       0.00812059       0.00311059       0.00148416
Pt       4.22360238       2.44072646      26.90706385        1      -0.01601127       0.01197838       0.00713766
Pt       7.01548387       2.42818896      26.91246300        1      -0.00185651       0.00456165       0.00712969
Pt       5.59264949       4.85428864      26.90501208        1       0.01229182      -0.00004804       0.00294253
Pt       8.42294552       4.84230712      26.90589747        1       0.00132521       0.00051478       0.00870981
Pt      12.61059783       7.29426029      26.90527378        1      -0.00281046      -0.00115624       0.01123672
C       -0.08831644       2.24221442      40.95741147        0       0.03831847       0.00771949       0.00418968
O        1.03144757       2.46779832      41.07984425        0      -0.03831847      -0.00771949      -0.00418968
O        4.84787185       3.47273899      33.41875049        0      -0.00779777      -0.00110517      -0.00142968
