39
Lattice="8.421641763931781 0.0 0.0 4.2108208819658905 7.293355709136913 0.0 0.0 0.0 46.87624170604845" Properties=species:S:1:pos:R:3:tags:I:1:forces:R:3 charge=0 spin=0 energy=-209.3640794668098 free_energy=-209.3640794668098 stress="0.01044274028390646 2.0602415329307178e-09 -6.7935355119175256e-09 2.0602415329307178e-09 0.010442743077874184 1.2983982777825531e-08 -6.7935355119175256e-09 1.2983982777825531e-08 -0.00012754020281136036" pbc="T T T"
Pt      -0.00000001       0.00000022      19.95723425        4       0.00000272      -0.00000196       0.01478302
Pt       2.80721397      -0.00000009      19.95723437        4      -0.00006324       0.00031067       0.01545100
Pt       5.61442779      -0.00000006      19.95723442        4       0.00014856       0.00010426       0.01536410
Pt       1.40360720       2.43111836      19.95723428        4       0.00000977      -0.00017758       0.01537759
Pt       4.21082081       2.43111834      19.95723435        4       0.00000190       0.00000091       0.01514135
Pt       7.01803481       2.43111842      19.95723424        4      -0.00023654      -0.00020658       0.01545647
Pt       2.80721405       4.86223723      19.95723396        4       0.00029741      -0.00010568       0.01545579
Pt       5.61442805       4.86223729      19.95723414        4      -0.00016124       0.00007622       0.01537865
Pt       8.42164141       4.86223719      19.95723428        4       0.00000117      -0.00000013       0.01491243
Pt       1.40360726       0.81037260      22.29206791        3      -0.00028385       0.00015609      -0.04533482
Pt       4.21082130       0.81037249      22.29206785        3      -0.00027265      -0.00030161      -0.04547899
Pt       7.01803472       0.81037257      22.29206783        3       0.00000881      -0.00032041      -0.04533058
Pt       2.80721450       3.24149124      22.29206777        3      -0.00013634       0.00038925      -0.04548473
Pt       5.61442762       3.24149124      22.29206789        3       0.00040190      -0.00007873      -0.04548418
Pt       8.42164156       3.24149128      22.29206809        3       0.00017232      -0.00101465      -0.04311972
Pt       4.21082092       5.67260996      22.29206799        3       0.00027155       0.00016817      -0.04534392
Pt       7.01803487       5.67261037      22.29206782        3      -0.00097161       0.00036118      -0.04312330
Pt       9.82524820       5.67261064      22.29206809        3       0.00080660       0.00064362      -0.04312551
Pt      -0.00000052       1.62074570      24.58417379        2      -0.00011519       0.00429410       0.01865072
Pt       2.80721442       1.62074548      24.58417394        2      -0.00357218      -0.00241160       0.01492614
Pt       5.61442780       1.62074537      24.58417373        2       0.00386110      -0.00191430       0.01491799
Pt       1.40360637       4.05186438      24.58417386        2       0.00039785      -0.00011080       0.03365634
Pt       4.21082089       4.05186400      24.58417379        2      -0.00030454       0.00430711       0.01487149
Pt       7.01803504       4.05186405      24.58417405        2      -0.00026760      -0.00028196       0.03362025
Pt       2.80721281       6.48298343      24.58417366        2      -0.00367015      -0.00224872       0.01866158
Pt       5.61442797       6.48298326      24.58417386        2       0.00379079      -0.00201838       0.01865602
Pt       8.42164223       6.48298340      24.58417377        2      -0.00011673       0.00037614       0.03370919
Pt      -0.00000082      -0.00000053      26.91408820        1       0.00000510       0.00000283       0.00275042
Pt       2.80559067       0.00122579      26.91546791        1       0.01180801      -0.01364703       0.00440928
Pt       5.61673156       0.00186178      26.91565509        1      -0.01403364      -0.01576929       0.00386924
Pt       1.40406888       2.42817789      26.91564711        1      -0.00662851       0.02007867       0.00385476
Pt       4.21081862       2.43111763      26.90821165        1       0.00000027       0.00001609       0.03771913
Pt       7.01778057       2.42909399      26.91545556        1       0.00594999       0.01703460       0.00441330
Pt       2.80908892       4.86304283      26.91545255        1      -0.01774091      -0.00343985       0.00444575
Pt       5.61166474       4.86330502      26.91563187        1       0.02065063      -0.00425472       0.00391311
Pt       8.42164605       4.86223470      26.91397921        1      -0.00001425      -0.00000815       0.00215954
C        0.00000050       0.00000140      32.11212082        0       0.00000148      -0.00000483      -0.01790698
O        0.00000055      -0.00000068      33.29346130        0       0.00000057      -0.00000112      -0.01043051
O        0.00000074       0.00000376      30.93151497        0       0.00000074      -0.00000181       0.02363870
