39
Lattice="8.421641763931781 0.0 0.0 4.2108208819658905 7.293355709136913 0.0 0.0 0.0 46.87624170604845" Properties=species:S:1:pos:R:3:tags:I:1:forces:R:3 charge=0 spin=0 energy=-209.3651142034431 free_energy=-209.3651142034431 stress="0.010441483929753304 -1.1415748346621513e-09 3.8063521085041074e-11 -1.1415748346621513e-09 0.010441509075462818 1.4558569905176455e-09 3.8063521085041074e-11 1.4558569905176455e-09 -0.0001626018638489768" pbc="T T T"
Pt      -0.00000001       0.00000022      19.95723425        4       0.00000277      -0.00000257       0.01507290
Pt       2.80721397      -0.00000009      19.95723437        4      -0.00005342       0.00025303       0.01553174
Pt       5.61442779      -0.00000006      19.95723442        4       0.00019417      -0.00006529       0.01544408
Pt       1.40360720       2.43111836      19.95723428        4      -0.00015942      -0.00013295       0.01545507
Pt       4.21082081       2.43111834      19.95723435        4       0.00000175       0.00000200       0.01537844
Pt       7.01803481       2.43111842      19.95723424        4      -0.00019172      -0.00016898       0.01553537
Pt       2.80721405       4.86223723      19.95723396        4       0.00024184      -0.00008394       0.01553098
Pt       5.61442805       4.86223729      19.95723414        4      -0.00003714       0.00020120       0.01545420
Pt       8.42164141       4.86223719      19.95723428        4       0.00000126      -0.00000050       0.01496940
Pt       1.40360726       0.81037260      22.29206791        3      -0.00043362       0.00007094      -0.04624826
Pt       4.21082130       0.81037249      22.29206785        3      -0.00041456      -0.00000407      -0.04576464
Pt       7.01803472       0.81037257      22.29206783        3       0.00015652      -0.00040881      -0.04624538
Pt       2.80721450       3.24149124      22.29206777        3       0.00018747       0.00036930      -0.04577333
Pt       5.61442762       3.24149124      22.29206789        3       0.00022049      -0.00034656      -0.04576989
Pt       8.42164156       3.24149128      22.29206809        3       0.00021208      -0.00190535      -0.04120637
Pt       4.21082092       5.67260996      22.29206799        3       0.00027491       0.00034045      -0.04626489
Pt       7.01803487       5.67261037      22.29206782        3      -0.00176072       0.00076915      -0.04121100
Pt       9.82524820       5.67261064      22.29206809        3       0.00155443       0.00112635      -0.04121316
Pt      -0.00000052       1.62074570      24.58417379        2      -0.00015386       0.00589255       0.01281479
Pt       2.80721442       1.62074548      24.58417394        2       0.00120484       0.00045462       0.02748222
Pt       5.61442780       1.62074537      24.58417373        2      -0.00102466       0.00076370       0.02747580
Pt       1.40360637       4.05186438      24.58417386        2      -0.00002493       0.00016801       0.02198122
Pt       4.21082089       4.05186400      24.58417379        2      -0.00019307      -0.00128016       0.02736071
Pt       7.01803504       4.05186405      24.58417405        2       0.00016980      -0.00006587       0.02196001
Pt       2.80721281       6.48298343      24.58417366        2      -0.00503831      -0.00308116       0.01284352
Pt       5.61442797       6.48298326      24.58417386        2       0.00521319      -0.00276608       0.01283373
Pt       8.42164223       6.48298340      24.58417377        2      -0.00014822      -0.00011745       0.02210000
Pt       0.00000018       0.00000052      26.91090339        1      -0.00000475      -0.00000641       0.00626941
Pt       2.80746105      -0.00159287      26.91476845        1      -0.00144376       0.01319569       0.00844179
Pt       5.61473485      -0.00099817      26.91487613        1      -0.00035171       0.01125154       0.00817343
Pt       1.40259564       2.43133256      26.91485786        1       0.00992369      -0.00535462       0.00824086
Pt       4.21081937       2.43113186      26.91439074        1       0.00001202      -0.00011553       0.00495230
Pt       7.01928979       2.43210991      26.91474076        1      -0.01069435      -0.00789157       0.00854429
Pt       2.80571987       4.86282593      26.91473658        1       0.01208630      -0.00529905       0.00856272
Pt       5.61512691       4.86300797      26.91483665        1      -0.00953617      -0.00588651       0.00831722
Pt       8.42164173       4.86221072      26.91391560        1       0.00000713       0.00012768       0.01216971
C        0.00000102       0.00002187      31.98222789        0      -0.00001253       0.00003848      -0.03277520
O       -0.00000130      -0.00002122      33.16310912        0       0.00000603      -0.00002139       0.02299934
O        0.00000272       0.00007173      30.80171473        0       0.00000614      -0.00001988       0.01057682
