39
Lattice="8.421641763931781 0.0 0.0 4.2108208819658905 7.293355709136913 0.0 0.0 0.0 46.87624170604845" Properties=species:S:1:pos:R:3:tags:I:1:forces:R:3 charge=0 spin=0 energy=-209.36511801814038 free_energy=-209.36511801814038 stress="0.010441480204463005 1.8584059846560308e-09 -1.1114117404176227e-09 1.8584059846560308e-09 0.010441485792398453 1.911367730755842e-09 -1.1114117404176227e-09 1.911367730755842e-09 -0.00016241002595052123" pbc="T T T"
Pt      -0.00000001       0.00000022      19.95723425        4       0.00000282      -0.00000322       0.01507294
Pt       2.80721397      -0.00000009      19.95723437        4      -0.00005334       0.00025252       0.01553178
Pt       5.61442779      -0.00000006      19.95723442        4       0.00019419      -0.00006577       0.01544432
Pt       1.40360720       2.43111836      19.95723428        4      -0.00015942      -0.00013316       0.01545515
Pt       4.21082081       2.43111834      19.95723435        4       0.00000168       0.00000127       0.01537860
Pt       7.01803481       2.43111842      19.95723424        4      -0.00019189      -0.00016896       0.01553541
Pt       2.80721405       4.86223723      19.95723396        4       0.00024183      -0.00008458       0.01553106
Pt       5.61442805       4.86223729      19.95723414        4      -0.00003699       0.00020078       0.01545405
Pt       8.42164141       4.86223719      19.95723428        4       0.00000140      -0.00000050       0.01496953
Pt       1.40360726       0.81037260      22.29206791        3      -0.00043422       0.00006912      -0.04624940
Pt       4.21082130       0.81037249      22.29206785        3      -0.00041478      -0.00000611      -0.04576411
Pt       7.01803472       0.81037257      22.29206783        3       0.00015649      -0.00041004      -0.04624698
Pt       2.80721450       3.24149124      22.29206777        3       0.00018814       0.00036670      -0.04577361
Pt       5.61442762       3.24149124      22.29206789        3       0.00022034      -0.00034963      -0.04577083
Pt       8.42164156       3.24149128      22.29206809        3       0.00021182      -0.00190723      -0.04120501
Pt       4.21082092       5.67260996      22.29206799        3       0.00027518       0.00033873      -0.04626621
Pt       7.01803487       5.67261037      22.29206782        3      -0.00176137       0.00076741      -0.04120950
Pt       9.82524820       5.67261064      22.29206809        3       0.00155481       0.00112488      -0.04121097
Pt      -0.00000052       1.62074570      24.58417379        2      -0.00015269       0.00589796       0.01281114
Pt       2.80721442       1.62074548      24.58417394        2       0.00120860       0.00046275       0.02748365
Pt       5.61442780       1.62074537      24.58417373        2      -0.00102823       0.00077182       0.02747345
Pt       1.40360637       4.05186438      24.58417386        2      -0.00003100       0.00017617       0.02198353
Pt       4.21082089       4.05186400      24.58417379        2      -0.00019312      -0.00127505       0.02735495
Pt       7.01803504       4.05186405      24.58417405        2       0.00017777      -0.00005612       0.02196404
Pt       2.80721281       6.48298343      24.58417366        2      -0.00504562      -0.00308227       0.01282949
Pt       5.61442797       6.48298326      24.58417386        2       0.00522017      -0.00276472       0.01282394
Pt       8.42164223       6.48298340      24.58417377        2      -0.00014845      -0.00011605       0.02209371
Pt      -0.00000062      -0.00000108      26.91089812        1       0.00000664       0.00003539       0.00629294
Pt       2.80746270      -0.00158475      26.91476726        1      -0.00145283       0.01319414       0.00845017
Pt       5.61473435      -0.00099025      26.91487555        1      -0.00034658       0.01125020       0.00818378
Pt       1.40259558       2.43133958      26.91485635        1       0.00992347      -0.00536149       0.00824243
Pt       4.21082078       2.43114343      26.91439300        1       0.00000520      -0.00014605       0.00494545
Pt       7.01929150       2.43211642      26.91473887        1      -0.01069058      -0.00789331       0.00854741
Pt       2.80571885       4.86283038      26.91473544        1       0.01208515      -0.00529667       0.00856461
Pt       5.61512882       4.86301236      26.91483645        1      -0.00953247      -0.00587982       0.00831751
Pt       8.42164322       4.86222333      26.91391864        1      -0.00000256       0.00009461       0.01215315
C       -0.00000622      -0.00004297      31.98224588        0      -0.00000911      -0.00009229      -0.03259324
O        0.00000651       0.00004638      33.16312991        0       0.00000506       0.00004641       0.02262793
O       -0.00002055      -0.00014711      30.80173192        0       0.00000458       0.00004205       0.01077393
