39
Lattice="8.421641763931781 0.0 0.0 4.2108208819658905 7.293355709136913 0.0 0.0 0.0 46.87624170604845" Properties=species:S:1:pos:R:3:tags:I:1:forces:R:3 charge=0 spin=0 energy=-70.32260607813794 free_energy=-70.32260607813794 stress="0.008566176518797874 0.00013680709525942802 3.498293153825216e-05 0.00013680709525942802 0.00871711689978838 -3.078987720073201e-05 3.498293153825216e-05 -3.078987720073201e-05 -0.0017603124724701047" pbc="T T T"
Pt      -0.00000001       0.00000022      19.95723425        4       0.01669624       0.01598378      -0.00867254
Pt       2.80721397      -0.00000009      19.95723437        4      -0.01821816       0.01239465       0.01348082
Pt       5.61442779      -0.00000006      19.95723442        4       0.00228042       0.00425293      -0.03932494
Pt       1.40360720       2.43111836      19.95723428        4      -0.01111593      -0.01884145      -0.01493507
Pt       4.21082081       2.43111834      19.95723435        4       0.02895083       0.00325827      -0.02568104
Pt       7.01803481       2.43111842      19.95723424        4      -0.01464980       0.00735939      -0.01734675
Pt       2.80721405       4.86223723      19.95723396        4      -0.00997781       0.00515863       0.01579425
Pt       5.61442805       4.86223729      19.95723414        4       0.01479902      -0.02651727      -0.03008391
Pt       8.42164141       4.86223719      19.95723428        4      -0.00241810      -0.00590005      -0.03411867
Pt       1.40360726       0.81037260      22.29206791        3       0.01234322      -0.00090597      -0.10189976
Pt       4.21082130       0.81037249      22.29206785        3       0.01545300      -0.00982754      -0.28093439
Pt       7.01803472       0.81037257      22.29206783        3      -0.04047710      -0.02829636      -0.27448952
Pt       2.80721450       3.24149124      22.29206777        3       0.02757904      -0.00971844      -0.23605762
Pt       5.61442762       3.24149124      22.29206789        3       0.00785630       0.00164155      -0.18335779
Pt       8.42164156       3.24149128      22.29206809        3       0.01620532       0.02913457      -0.26661161
Pt       4.21082092       5.67260996      22.29206799        3       0.01395973      -0.01356443      -0.22541830
Pt       7.01803487       5.67261037      22.29206782        3       0.02401684      -0.01107441      -0.29280043
Pt       9.82524820       5.67261064      22.29206809        3      -0.01976477       0.01542033      -0.13213462
Pt      -0.00000052       1.62074570      24.58417379        2       0.14976591      -0.04040805       0.62387240
Pt       2.80721442       1.62074548      24.58417394        2      -0.36948422      -0.19591880       0.20078428
Pt       5.61442780       1.62074537      24.58417373        2       0.10914157       0.06066000       0.02959225
Pt       1.40360637       4.05186438      24.58417386        2      -0.10142355       0.24148376       0.33668140
Pt       4.21082089       4.05186400      24.58417379        2       0.11880847      -0.08458884       0.01268127
Pt       7.01803504       4.05186405      24.58417405        2       0.03878548      -0.15906274       0.05601867
Pt       2.80721281       6.48298343      24.58417366        2      -0.24466769      -0.09660879       0.33014923
Pt       5.61442797       6.48298326      24.58417386        2       0.01277252       0.40745255       0.19860484
Pt       8.42164223       6.48298340      24.58417377        2       0.21842745      -0.11371148       0.34296548
Pt       1.94865290       9.30000535      34.41760247        1      -0.02036262       0.00836368      -0.01957993
Pt       1.25979224      -3.96840218      26.92839569        1       0.00040288      -0.00173091       0.01542344
Pt       2.79788862      -1.60680340      26.81756080        1      -0.01168564      -0.00430268       0.01062361
Pt      -0.03857661      -1.59481805      26.83975960        1       0.00281170       0.00768664      -0.00373460
Pt       4.18489441       0.80835393      26.81563340        1       0.00102028       0.00586493      -0.00202818
Pt       8.56293853       3.40578817      26.84904083        1      -0.00289565       0.02116756      -0.01319833
Pt       2.76407833       3.26377484      26.84396380        1       0.00585158      -0.00759574       0.00617428
Pt       6.92845659       0.61770158      26.82842766        1       0.00327046      -0.00824171       0.01002328
Pt       7.11948522       2.37325290      28.66533341        1      -0.00348782      -0.00273509       0.00286164
C        3.04948535       9.66089096      33.08250863        0       0.00767496       0.00500982      -0.01740317
O        3.53495959       9.07686369      32.18448261        0       0.00172613       0.00083571       0.00758785
O        2.12247474       9.40201386      34.48635903        0       0.02002980      -0.01357893       0.00649226
