39
Lattice="8.421641763931781 0.0 0.0 4.2108208819658905 7.293355709136913 0.0 0.0 0.0 46.87624170604845" Properties=species:S:1:pos:R:3:tags:I:1:forces:R:3 charge=0 spin=0 energy=-90.39333056544262 free_energy=-90.39333056544262 stress="0.00976291298866272 -1.0919899978034664e-05 9.581865015206859e-06 -1.0919899978034664e-05 0.009760463610291481 1.46918966947851e-06 9.581865015206859e-06 1.46918966947851e-06 -0.0003841491707134992" pbc="T T T"
Pt      -0.00000001       0.00000022      19.95723425        4      -0.00040444       0.00033100       0.02126366
Pt       2.80721397      -0.00000009      19.95723437        4       0.00529236      -0.01398906       0.01543270
Pt       5.61442779      -0.00000006      19.95723442        4      -0.01146953      -0.01344445       0.01498450
Pt       1.40360720       2.43111836      19.95723428        4      -0.00557492       0.01650411       0.01478768
Pt       4.21082081       2.43111834      19.95723435        4       0.00026387      -0.00006559       0.01179431
Pt       7.01803481       2.43111842      19.95723424        4       0.00942243       0.01133214       0.01511690
Pt       2.80721405       4.86223723      19.95723396        4      -0.01444374       0.00238557       0.01554811
Pt       5.61442805       4.86223729      19.95723414        4       0.01737620      -0.00357511       0.01466934
Pt       8.42164141       4.86223719      19.95723428        4      -0.00003058      -0.00000463      -0.05027957
Pt       1.40360726       0.81037260      22.29206791        3       0.01100309       0.02508638      -0.07599647
Pt       4.21082130       0.81037249      22.29206785        3      -0.00240740       0.00685960      -0.06410401
Pt       7.01803472       0.81037257      22.29206783        3      -0.02809149      -0.00370873      -0.07365078
Pt       2.80721450       3.24149124      22.29206777        3       0.00838844      -0.00230999      -0.06496024
Pt       5.61442762       3.24149124      22.29206789        3      -0.00528822      -0.00550177      -0.06553169
Pt       8.42164156       3.24149128      22.29206809        3      -0.00223851       0.02704022      -0.05450859
Pt       4.21082092       5.67260996      22.29206799        3       0.01742207      -0.02161627      -0.07688159
Pt       7.01803487       5.67261037      22.29206782        3       0.02558760      -0.01121746      -0.05441144
Pt       9.82524820       5.67261064      22.29206809        3      -0.02259923      -0.01699806      -0.05289094
Pt      -0.00000052       1.62074570      24.58417379        2       0.00916820      -0.09668160       0.21791509
Pt       2.80721442       1.62074548      24.58417394        2       0.02819763       0.01114338      -0.00316900
Pt       5.61442780       1.62074537      24.58417373        2      -0.01537945       0.01980745       0.00116368
Pt       1.40360637       4.05186438      24.58417386        2      -0.07708059       0.04501617      -0.05093855
Pt       4.21082089       4.05186400      24.58417379        2      -0.01219719      -0.02991772      -0.00011502
Pt       7.01803504       4.05186405      24.58417405        2       0.07309119       0.04062888      -0.04838113
Pt       2.80721281       6.48298343      24.58417366        2       0.07291786       0.06278345       0.22224098
Pt       5.61442797       6.48298326      24.58417386        2      -0.09295815       0.03851131       0.21399499
Pt       8.42164223       6.48298340      24.58417377        2       0.00448131      -0.08234804      -0.04721965
Pt       0.09947656       2.22499097      32.71792704        1       0.01549037      -0.03276259       0.00617140
Pt       2.81708356      -0.00635975      26.90275292        1       0.00281987      -0.00668487       0.01490965
Pt       5.59595797       0.00597125      26.90853845        1       0.00301940      -0.00913569      -0.00251110
Pt       1.41390140       2.44876704      26.90510765        1       0.00805506      -0.00456694      -0.00351057
Pt       4.21629555       2.42655531      26.91848329        1      -0.02339558       0.02074306      -0.01364661
Pt       7.02026780       2.44739540      26.90740084        1      -0.00031361       0.00075146      -0.00470202
Pt       2.79069384       4.85644115      26.90495495        1       0.00259152       0.00034697       0.00187695
Pt       5.61679278       4.84420819      26.90480918        1       0.00563242       0.00353824       0.01292944
Pt       8.41684971       4.86695186      26.94713211        1       0.01217621      -0.01034907      -0.01490863
C        0.52182425      -4.51571877      37.31565769        0      -0.01615093       0.01547417       0.00019071
O       -0.18586950      -3.65135318      37.04848284        0       0.01219954      -0.01490030       0.00460622
O        0.18894437       2.01621314      32.73005898        0      -0.01457333       0.03149644       0.00272128
