39
Lattice="8.421641763931781 0.0 0.0 4.2108208819658905 7.293355709136913 0.0 0.0 0.0 46.87624170604845" Properties=species:S:1:pos:R:3:tags:I:1:forces:R:3 charge=0 spin=0 energy=-209.36511801814038 free_energy=-209.36511801814038 stress="0.010441464371979237 5.348375964331353e-09 1.0426055574441762e-08 5.348375964331353e-09 0.010441495105624199 2.7831212889850576e-09 1.0426055574441762e-08 2.7831212889850576e-09 -0.0001626122248126194" pbc="T T T"
Pt      -0.00000001       0.00000022      19.95723425        4       0.00000282      -0.00000258       0.01507307
Pt       2.80721397      -0.00000009      19.95723437        4      -0.00005342       0.00025317       0.01553170
Pt       5.61442779      -0.00000006      19.95723442        4       0.00019380      -0.00006541       0.01544421
Pt       1.40360720       2.43111836      19.95723428        4      -0.00015934      -0.00013280       0.01545494
Pt       4.21082081       2.43111834      19.95723435        4       0.00000174       0.00000219       0.01537854
Pt       7.01803481       2.43111842      19.95723424        4      -0.00019190      -0.00016854       0.01553539
Pt       2.80721405       4.86223723      19.95723396        4       0.00024164      -0.00008413       0.01553092
Pt       5.61442805       4.86223729      19.95723414        4      -0.00003686       0.00020107       0.01545428
Pt       8.42164141       4.86223719      19.95723428        4       0.00000146      -0.00000047       0.01496962
Pt       1.40360726       0.81037260      22.29206791        3      -0.00043337       0.00007132      -0.04624997
Pt       4.21082130       0.81037249      22.29206785        3      -0.00041420      -0.00000390      -0.04576407
Pt       7.01803472       0.81037257      22.29206783        3       0.00015705      -0.00040887      -0.04624758
Pt       2.80721450       3.24149124      22.29206777        3       0.00018844       0.00036932      -0.04577339
Pt       5.61442762       3.24149124      22.29206789        3       0.00022034      -0.00034693      -0.04577006
Pt       8.42164156       3.24149128      22.29206809        3       0.00021255      -0.00190611      -0.04120363
Pt       4.21082092       5.67260996      22.29206799        3       0.00027501       0.00034133      -0.04626749
Pt       7.01803487       5.67261037      22.29206782        3      -0.00176132       0.00076980      -0.04120903
Pt       9.82524820       5.67261064      22.29206809        3       0.00155543       0.00112715      -0.04121114
Pt      -0.00000052       1.62074570      24.58417379        2      -0.00015372       0.00589867       0.01280668
Pt       2.80721442       1.62074548      24.58417394        2       0.00120788       0.00045682       0.02747812
Pt       5.61442780       1.62074537      24.58417373        2      -0.00102921       0.00076617       0.02746975
Pt       1.40360637       4.05186438      24.58417386        2      -0.00002999       0.00017271       0.02197828
Pt       4.21082089       4.05186400      24.58417379        2      -0.00019519      -0.00128511       0.02736054
Pt       7.01803504       4.05186405      24.58417405        2       0.00017588      -0.00006199       0.02195591
Pt       2.80721281       6.48298343      24.58417366        2      -0.00504425      -0.00308720       0.01284011
Pt       5.61442797       6.48298326      24.58417386        2       0.00521732      -0.00276946       0.01282977
Pt       8.42164223       6.48298340      24.58417377        2      -0.00014844      -0.00012729       0.02209468
Pt      -0.00000009       0.00000103      26.91089875        1      -0.00000285      -0.00001461       0.00628395
Pt       2.80746388      -0.00159246      26.91476634        1      -0.00146039       0.01318544       0.00843851
Pt       5.61473153      -0.00099790      26.91487486        1      -0.00032950       0.01124030       0.00818066
Pt       1.40259840       2.43133399      26.91485617        1       0.00990818      -0.00536589       0.00824860
Pt       4.21081895       2.43113015      26.91439445        1       0.00001159      -0.00010773       0.00494163
Pt       7.01928723       2.43211067      26.91473952        1      -0.01068006      -0.00789746       0.00854673
Pt       2.80571928       4.86282237      26.91473501        1       0.01209158      -0.00527730       0.00856357
Pt       5.61512693       4.86300445      26.91483492        1      -0.00953692      -0.00587043       0.00831546
Pt       8.42164127       4.86220936      26.91391962        1       0.00000478       0.00013203       0.01215493
C        0.00000212       0.00003016      31.98218994        0      -0.00000487       0.00005656      -0.03221786
O       -0.00000113      -0.00003024      33.16307549        0      -0.00000072      -0.00003106       0.02264209
O        0.00000633       0.00010017      30.80167793        0      -0.00000083      -0.00002881       0.01041142
