39
Lattice="8.421641763931781 0.0 0.0 4.2108208819658905 7.293355709136913 0.0 0.0 0.0 46.87624170604845" Properties=species:S:1:pos:R:3:tags:I:1:forces:R:3 charge=0 spin=0 energy=-75.96109484766919 free_energy=-75.96109484766919 stress="0.009759758599102497 4.87580052777048e-07 -2.7103868660560693e-07 4.87580052777048e-07 0.009753145277500153 -8.340535941897542e-07 -2.7103868660560693e-07 -8.340535941897542e-07 -0.0003523667110130191" pbc="T T T"
Pt      -0.00000001       0.00000022      19.95723425        4       0.00007942      -0.00009382       0.02110391
Pt       2.80721397      -0.00000009      19.95723437        4       0.00516463      -0.01393194       0.01549480
Pt       5.61442779      -0.00000006      19.95723442        4      -0.01153955      -0.01314998       0.01500876
Pt       1.40360720       2.43111836      19.95723428        4      -0.00566536       0.01653528       0.01475134
Pt       4.21082081       2.43111834      19.95723435        4       0.00000017      -0.00006308       0.01168765
Pt       7.01803481       2.43111842      19.95723424        4       0.00940979       0.01137014       0.01542112
Pt       2.80721405       4.86223723      19.95723396        4      -0.01456862       0.00251050       0.01536584
Pt       5.61442805       4.86223729      19.95723414        4       0.01721153      -0.00325856       0.01488832
Pt       8.42164141       4.86223719      19.95723428        4       0.00000290      -0.00000136      -0.05046267
Pt       1.40360726       0.81037260      22.29206791        3       0.01114138       0.02561104      -0.07453756
Pt       4.21082130       0.81037249      22.29206785        3      -0.00212743       0.00742332      -0.06368417
Pt       7.01803472       0.81037257      22.29206783        3      -0.02791239      -0.00375770      -0.07475222
Pt       2.80721450       3.24149124      22.29206777        3       0.00755705      -0.00178143      -0.06545148
Pt       5.61442762       3.24149124      22.29206789        3      -0.00537836      -0.00569836      -0.06551068
Pt       8.42164156       3.24149128      22.29206809        3      -0.00280907       0.02767069      -0.05486194
Pt       4.21082092       5.67260996      22.29206799        3       0.01684383      -0.02216535      -0.07517841
Pt       7.01803487       5.67261037      22.29206782        3       0.02574861      -0.01146962      -0.05393308
Pt       9.82524820       5.67261064      22.29206809        3      -0.02280059      -0.01645037      -0.05435417
Pt      -0.00000052       1.62074570      24.58417379        2       0.01397803      -0.09755088       0.21740328
Pt       2.80721442       1.62074548      24.58417394        2       0.02420570       0.00331662      -0.00076743
Pt       5.61442780       1.62074537      24.58417373        2      -0.01761897       0.01720205      -0.00064862
Pt       1.40360637       4.05186438      24.58417386        2      -0.07074419       0.03780881      -0.04836233
Pt       4.21082089       4.05186400      24.58417379        2      -0.00804123      -0.02207007      -0.00409420
Pt       7.01803504       4.05186405      24.58417405        2       0.06952058       0.04231349      -0.05344170
Pt       2.80721281       6.48298343      24.58417366        2       0.07555874       0.06092386       0.22103620
Pt       5.61442797       6.48298326      24.58417386        2      -0.08902410       0.03788462       0.21977541
Pt       8.42164223       6.48298340      24.58417377        2       0.00157371      -0.07876404      -0.04678628
Pt      -2.28024132      -0.54507127      41.59839345        1       0.00535232       0.01739775      -0.02139706
Pt       2.81892394      -0.00945892      26.90637487        1       0.00282415       0.00078942      -0.00207718
Pt       5.59659679       0.00333935      26.90820608        1      -0.00094496       0.00345928      -0.00386982
Pt       1.41529956       2.44345600      26.90774656        1       0.00019285       0.00519580       0.00233748
Pt       4.21016067       2.43279266      26.91353052        1       0.00185676      -0.00626522       0.00223246
Pt       7.02025546       2.44699144      26.90490590        1      -0.00110920      -0.00169205       0.00444146
Pt       2.79352746       4.85675183      26.90566082        1      -0.00410343      -0.00058426       0.00138441
Pt       5.62068273       4.84527300      26.90711162        1      -0.00096723      -0.00034545       0.00009281
Pt       8.42139080       4.86259536      26.94355080        1       0.00248481      -0.00092114       0.00034871
C       -1.40590909       1.36030635      41.48708043        0      -0.00029610       0.00812517      -0.00465715
O       -1.15648130       1.53051582      42.57956775        0       0.00261649       0.00071586       0.00278388
O       -2.18718271      -0.62375368      41.77825631        0      -0.00767564      -0.02624590       0.02327254
