39
Lattice="8.421641763931781 0.0 0.0 4.2108208819658905 7.293355709136913 0.0 0.0 0.0 46.87624170604845" Properties=species:S:1:pos:R:3:tags:I:1:forces:R:3 charge=0 spin=0 energy=-209.36511801814038 free_energy=-209.36511801814038 stress="0.010441476479172707 3.8279281966424605e-09 -7.841051363755014e-09 3.8279281966424605e-09 0.010441512800753117 1.927305204318941e-09 -7.841051363755014e-09 1.927305204318941e-09 -0.0001626902085263282" pbc="T T T"
Pt      -0.00000001       0.00000022      19.95723425        4       0.00000272      -0.00000230       0.01507277
Pt       2.80721397      -0.00000009      19.95723437        4      -0.00005338       0.00025306       0.01553170
Pt       5.61442779      -0.00000006      19.95723442        4       0.00019432      -0.00006523       0.01544438
Pt       1.40360720       2.43111836      19.95723428        4      -0.00015940      -0.00013302       0.01545488
Pt       4.21082081       2.43111834      19.95723435        4       0.00000181       0.00000191       0.01537854
Pt       7.01803481       2.43111842      19.95723424        4      -0.00019171      -0.00016887       0.01553535
Pt       2.80721405       4.86223723      19.95723396        4       0.00024167      -0.00008391       0.01553102
Pt       5.61442805       4.86223729      19.95723414        4      -0.00003709       0.00020130       0.01545430
Pt       8.42164141       4.86223719      19.95723428        4       0.00000141      -0.00000060       0.01496951
Pt       1.40360726       0.81037260      22.29206791        3      -0.00043347       0.00007115      -0.04624733
Pt       4.21082130       0.81037249      22.29206785        3      -0.00041456      -0.00000403      -0.04576477
Pt       7.01803472       0.81037257      22.29206783        3       0.00015599      -0.00040862      -0.04624542
Pt       2.80721450       3.24149124      22.29206777        3       0.00018776       0.00036939      -0.04577369
Pt       5.61442762       3.24149124      22.29206789        3       0.00022067      -0.00034633      -0.04576994
Pt       8.42164156       3.24149128      22.29206809        3       0.00021201      -0.00190482      -0.04120648
Pt       4.21082092       5.67260996      22.29206799        3       0.00027489       0.00034050      -0.04626526
Pt       7.01803487       5.67261037      22.29206782        3      -0.00176065       0.00076932      -0.04121071
Pt       9.82524820       5.67261064      22.29206809        3       0.00155438       0.00112705      -0.04121302
Pt      -0.00000052       1.62074570      24.58417379        2      -0.00015188       0.00589367       0.01281400
Pt       2.80721442       1.62074548      24.58417394        2       0.00120111       0.00045422       0.02748256
Pt       5.61442780       1.62074537      24.58417373        2      -0.00102325       0.00076258       0.02747472
Pt       1.40360637       4.05186438      24.58417386        2      -0.00002452       0.00016498       0.02198501
Pt       4.21082089       4.05186400      24.58417379        2      -0.00019365      -0.00128000       0.02735966
Pt       7.01803504       4.05186405      24.58417405        2       0.00016876      -0.00006581       0.02196186
Pt       2.80721281       6.48298343      24.58417366        2      -0.00503783      -0.00308206       0.01284040
Pt       5.61442797       6.48298326      24.58417386        2       0.00521272      -0.00276611       0.01283359
Pt       8.42164223       6.48298340      24.58417377        2      -0.00014846      -0.00011866       0.02210237
Pt      -0.00000005       0.00000081      26.91090396        1       0.00000002      -0.00001155       0.00627271
Pt       2.80746058      -0.00159397      26.91476777        1      -0.00144253       0.01319594       0.00844378
Pt       5.61473561      -0.00099953      26.91487641        1      -0.00036355       0.01125458       0.00816900
Pt       1.40259529       2.43133142      26.91485910        1       0.00992874      -0.00535160       0.00823473
Pt       4.21081866       2.43113042      26.91438905        1       0.00001324      -0.00011207       0.00495957
Pt       7.01929052       2.43210877      26.91474105        1      -0.01070096      -0.00788452       0.00853995
Pt       2.80571983       4.86282599      26.91473651        1       0.01208602      -0.00530372       0.00856609
Pt       5.61512622       4.86300836      26.91483689        1      -0.00952941      -0.00589542       0.00831068
Pt       8.42164145       4.86220939      26.91391599        1       0.00000523       0.00013232       0.01216822
C        0.00000182       0.00002985      31.98225304        0       0.00000481       0.00005869      -0.03293506
O       -0.00000246      -0.00002998      33.16313288        0      -0.00000112      -0.00003186       0.02317882
O        0.00000602       0.00009958      30.80173877        0      -0.00000073      -0.00002958       0.01056180
