39
Lattice="8.421641763931781 0.0 0.0 4.2108208819658905 7.293355709136913 0.0 0.0 0.0 46.87624170604845" Properties=species:S:1:pos:R:3:tags:I:1:forces:R:3 charge=0 spin=0 energy=-209.36407660578686 free_energy=-209.36407660578686 stress="0.01044271606951952 7.705192928142424e-09 1.4429207162436342e-08 7.705192928142424e-09 0.010442721657454967 -4.2190411164710895e-09 1.4429207162436342e-08 -4.2190411164710895e-09 -0.00012766153668053448" pbc="T T T"
Pt      -0.00000001       0.00000022      19.95723425        4       0.00000266      -0.00000227       0.01478323
Pt       2.80721397      -0.00000009      19.95723437        4      -0.00006320       0.00031081       0.01545083
Pt       5.61442779      -0.00000006      19.95723442        4       0.00014845       0.00010419       0.01536425
Pt       1.40360720       2.43111836      19.95723428        4       0.00000974      -0.00017759       0.01537740
Pt       4.21082081       2.43111834      19.95723435        4       0.00000189       0.00000067       0.01514124
Pt       7.01803481       2.43111842      19.95723424        4      -0.00023680      -0.00020658       0.01545657
Pt       2.80721405       4.86223723      19.95723396        4       0.00029765      -0.00010564       0.01545560
Pt       5.61442805       4.86223729      19.95723414        4      -0.00016115       0.00007591       0.01537865
Pt       8.42164141       4.86223719      19.95723428        4       0.00000126      -0.00000008       0.01491262
Pt       1.40360726       0.81037260      22.29206791        3      -0.00028400       0.00015614      -0.04533636
Pt       4.21082130       0.81037249      22.29206785        3      -0.00027293      -0.00030164      -0.04547846
Pt       7.01803472       0.81037257      22.29206783        3       0.00000925      -0.00032081      -0.04533017
Pt       2.80721450       3.24149124      22.29206777        3      -0.00013613       0.00038985      -0.04548588
Pt       5.61442762       3.24149124      22.29206789        3       0.00040217      -0.00007889      -0.04548416
Pt       8.42164156       3.24149128      22.29206809        3       0.00017300      -0.00101492      -0.04311895
Pt       4.21082092       5.67260996      22.29206799        3       0.00027153       0.00016860      -0.04534394
Pt       7.01803487       5.67261037      22.29206782        3      -0.00097163       0.00036141      -0.04312208
Pt       9.82524820       5.67261064      22.29206809        3       0.00080715       0.00064332      -0.04312463
Pt      -0.00000052       1.62074570      24.58417379        2      -0.00011782       0.00430042       0.01863852
Pt       2.80721442       1.62074548      24.58417394        2      -0.00356626      -0.00240805       0.01492598
Pt       5.61442780       1.62074537      24.58417373        2       0.00385703      -0.00190932       0.01491966
Pt       1.40360637       4.05186438      24.58417386        2       0.00039249      -0.00010718       0.03365798
Pt       4.21082089       4.05186400      24.58417379        2      -0.00030471       0.00430063       0.01487222
Pt       7.01803504       4.05186405      24.58417405        2      -0.00026337      -0.00028182       0.03362142
Pt       2.80721281       6.48298343      24.58417366        2      -0.00367471      -0.00225101       0.01864774
Pt       5.61442797       6.48298326      24.58417386        2       0.00379416      -0.00202088       0.01864185
Pt       8.42164223       6.48298340      24.58417377        2      -0.00011604       0.00037108       0.03370855
Pt      -0.00000077      -0.00000044      26.91408097        1       0.00000293       0.00000238       0.00277913
Pt       2.80559021       0.00122586      26.91546689        1       0.01182724      -0.01364492       0.00440272
Pt       5.61673188       0.00186219      26.91565246        1      -0.01403625      -0.01577053       0.00388610
Pt       1.40406856       2.42817765      26.91564521        1      -0.00662766       0.02008300       0.00387223
Pt       4.21081886       2.43111791      26.90821471        1      -0.00000100       0.00001552       0.03770024
Pt       7.01778096       2.42909404      26.91545504        1       0.00594655       0.01703980       0.00441627
Pt       2.80908929       4.86304312      26.91545038        1      -0.01774849      -0.00344884       0.00444797
Pt       5.61166475       4.86330549      26.91563051        1       0.02065352      -0.00426524       0.00391479
Pt       8.42164558       4.86223485      26.91398236        1      -0.00000799      -0.00000946       0.00214175
C        0.00000073       0.00000053      32.11215796        0      -0.00000911       0.00000248      -0.01840122
O        0.00000040       0.00000011      33.29349563        0       0.00000030       0.00000019      -0.01008284
O        0.00000031       0.00000086      30.93155172        0       0.00000031      -0.00000066       0.02379332
