39
Lattice="8.421641763931781 0.0 0.0 4.2108208819658905 7.293355709136913 0.0 0.0 0.0 46.87624170604845" Properties=species:S:1:pos:R:3:tags:I:1:forces:R:3 charge=0 spin=0 energy=-209.36511611079175 free_energy=-209.36511611079175 stress="0.01044145692139864 1.878752042827614e-09 -9.483660967646301e-09 1.878752042827614e-09 0.010441488586366177 9.491089691948673e-09 -9.483660967646301e-09 9.491089691948673e-09 -0.00016268248145934194" pbc="T T T"
Pt      -0.00000001       0.00000022      19.95723425        4       0.00000274      -0.00000256       0.01507294
Pt       2.80721397      -0.00000009      19.95723437        4      -0.00005326       0.00025314       0.01553176
Pt       5.61442779      -0.00000006      19.95723442        4       0.00019393      -0.00006538       0.01544410
Pt       1.40360720       2.43111836      19.95723428        4      -0.00015944      -0.00013270       0.01545505
Pt       4.21082081       2.43111834      19.95723435        4       0.00000177       0.00000224       0.01537860
Pt       7.01803481       2.43111842      19.95723424        4      -0.00019192      -0.00016861       0.01553524
Pt       2.80721405       4.86223723      19.95723396        4       0.00024183      -0.00008417       0.01553098
Pt       5.61442805       4.86223729      19.95723414        4      -0.00003698       0.00020100       0.01545409
Pt       8.42164141       4.86223719      19.95723428        4       0.00000126      -0.00000064       0.01496957
Pt       1.40360726       0.81037260      22.29206791        3      -0.00043342       0.00007127      -0.04624962
Pt       4.21082130       0.81037249      22.29206785        3      -0.00041434      -0.00000373      -0.04576447
Pt       7.01803472       0.81037257      22.29206783        3       0.00015685      -0.00040865      -0.04624786
Pt       2.80721450       3.24149124      22.29206777        3       0.00018871       0.00036915      -0.04577293
Pt       5.61442762       3.24149124      22.29206789        3       0.00022023      -0.00034671      -0.04577048
Pt       8.42164156       3.24149128      22.29206809        3       0.00021234      -0.00190602      -0.04120369
Pt       4.21082092       5.67260996      22.29206799        3       0.00027481       0.00034093      -0.04626687
Pt       7.01803487       5.67261037      22.29206782        3      -0.00176104       0.00076970      -0.04120912
Pt       9.82524820       5.67261064      22.29206809        3       0.00155491       0.00112722      -0.04121071
Pt      -0.00000052       1.62074570      24.58417379        2      -0.00015337       0.00590053       0.01280113
Pt       2.80721442       1.62074548      24.58417394        2       0.00120673       0.00045627       0.02747712
Pt       5.61442780       1.62074537      24.58417373        2      -0.00102813       0.00076439       0.02746904
Pt       1.40360637       4.05186438      24.58417386        2      -0.00002971       0.00017228       0.02197888
Pt       4.21082089       4.05186400      24.58417379        2      -0.00019522      -0.00128356       0.02735817
Pt       7.01803504       4.05186405      24.58417405        2       0.00017600      -0.00006154       0.02195585
Pt       2.80721281       6.48298343      24.58417366        2      -0.00504465      -0.00308815       0.01283370
Pt       5.61442797       6.48298326      24.58417386        2       0.00521958      -0.00277042       0.01282509
Pt       8.42164223       6.48298340      24.58417377        2      -0.00014871      -0.00012623       0.02209691
Pt       0.00000002       0.00000105      26.91089662        1       0.00000052      -0.00001476       0.00629757
Pt       2.80746312      -0.00159304      26.91476706        1      -0.00145681       0.01318896       0.00844673
Pt       5.61473256      -0.00099871      26.91487536        1      -0.00034786       0.01124585       0.00817491
Pt       1.40259742       2.43133372      26.91485690        1       0.00991695      -0.00536350       0.00824904
Pt       4.21081917       2.43113047      26.91439262        1       0.00000967      -0.00011083       0.00494793
Pt       7.01928817       2.43211062      26.91473918        1      -0.01068598      -0.00789279       0.00854673
Pt       2.80571909       4.86282326      26.91473490        1       0.01209081      -0.00528834       0.00856211
Pt       5.61512727       4.86300536      26.91483534        1      -0.00953843      -0.00587020       0.00832525
Pt       8.42164148       4.86220933      26.91391957        1       0.00000498       0.00013289       0.01215478
C        0.00000186       0.00002989      31.98220299        0       0.00000370       0.00005303      -0.03240811
O       -0.00000191      -0.00002944      33.16308650        0       0.00000033      -0.00003083       0.02282564
O        0.00000523       0.00009880      30.80169037        0       0.00000086      -0.00002873       0.01040489
