39
Lattice="8.421641763931781 0.0 0.0 4.2108208819658905 7.293355709136913 0.0 0.0 0.0 46.87624170604845" Properties=species:S:1:pos:R:3:tags:I:1:forces:R:3 charge=0 spin=0 energy=-75.96111010645825 free_energy=-75.96111010645825 stress="0.009760899469256401 -9.526752933197713e-07 -1.7528366242913762e-06 -9.526752933197713e-07 0.00975656695663929 -2.811171100347565e-07 -1.7528366242913762e-06 -2.811171100347565e-07 -0.0003496287390589714" pbc="T T T"
Pt      -0.00000001       0.00000022      19.95723425        4       0.00019337      -0.00003661       0.02115011
Pt       2.80721397      -0.00000009      19.95723437        4       0.00532158      -0.01397965       0.01544517
Pt       5.61442779      -0.00000006      19.95723442        4      -0.01144797      -0.01325259       0.01493304
Pt       1.40360720       2.43111836      19.95723428        4      -0.00550791       0.01647127       0.01481317
Pt       4.21082081       2.43111834      19.95723435        4       0.00006423      -0.00009042       0.01166229
Pt       7.01803481       2.43111842      19.95723424        4       0.00960774       0.01130709       0.01538857
Pt       2.80721405       4.86223723      19.95723396        4      -0.01451790       0.00240651       0.01534690
Pt       5.61442805       4.86223729      19.95723414        4       0.01731859      -0.00339603       0.01488586
Pt       8.42164141       4.86223719      19.95723428        4      -0.00001510       0.00003156      -0.05042686
Pt       1.40360726       0.81037260      22.29206791        3       0.01157517       0.02544987      -0.07458220
Pt       4.21082130       0.81037249      22.29206785        3      -0.00169009       0.00707309      -0.06388313
Pt       7.01803472       0.81037257      22.29206783        3      -0.02744895      -0.00399597      -0.07480678
Pt       2.80721450       3.24149124      22.29206777        3       0.00808707      -0.00199261      -0.06516418
Pt       5.61442762       3.24149124      22.29206789        3      -0.00486606      -0.00610966      -0.06556524
Pt       8.42164156       3.24149128      22.29206809        3      -0.00216274       0.02730960      -0.05490128
Pt       4.21082092       5.67260996      22.29206799        3       0.01715524      -0.02243092      -0.07554597
Pt       7.01803487       5.67261037      22.29206782        3       0.02612882      -0.01175215      -0.05361744
Pt       9.82524820       5.67261064      22.29206809        3      -0.02239835      -0.01678203      -0.05423751
Pt      -0.00000052       1.62074570      24.58417379        2       0.01217262      -0.09628125       0.21936969
Pt       2.80721442       1.62074548      24.58417394        2       0.02168154       0.00504945      -0.00158247
Pt       5.61442780       1.62074537      24.58417373        2      -0.01918296       0.01986303      -0.00358679
Pt       1.40360637       4.05186438      24.58417386        2      -0.07277705       0.03816300      -0.04925999
Pt       4.21082089       4.05186400      24.58417379        2      -0.00952129      -0.02125316      -0.00199819
Pt       7.01803504       4.05186405      24.58417405        2       0.06836164       0.04397382      -0.05109568
Pt       2.80721281       6.48298343      24.58417366        2       0.07563230       0.06173119       0.21958952
Pt       5.61442797       6.48298326      24.58417386        2      -0.08967002       0.03839162       0.22062688
Pt       8.42164223       6.48298340      24.58417377        2      -0.00018690      -0.07953785      -0.04893391
Pt       1.49905619      -0.76181428      33.56006556        1       0.00871787      -0.00294791      -0.03238600
Pt       2.81894477      -0.00799015      26.90615299        1      -0.00386741      -0.00211894      -0.00074972
Pt       5.59517055       0.00544562      26.90711894        1       0.00073406      -0.00096940       0.00235941
Pt       1.41326313       2.44473725      26.90791908        1       0.00026972       0.00331116       0.00127707
Pt       4.20767872       2.43238659      26.91377894        1       0.00397899       0.00096084       0.00192133
Pt       5.61852911       4.84631652      26.90739799        1       0.00121526      -0.00018976      -0.00210786
Pt       2.79067057       4.85811674      26.90532926        1       0.00227849      -0.00266163       0.00184739
Pt       7.01729891       2.44834925      26.90514208        1       0.00499725      -0.00130842       0.00284702
Pt       8.42050924       4.86416600      26.94401333        1      -0.00151309      -0.00335405      -0.00141817
C       -0.48587849      -1.19542190      34.08944419        0      -0.00317031      -0.00188091       0.00700588
O       -0.90995960      -0.14623981      34.15376331        0       0.00304393       0.00084631      -0.00648022
O        1.47566653      -0.56880423      33.46307381        0      -0.00858759       0.00398235       0.03186149
