39
Lattice="8.421641763931781 0.0 0.0 4.2108208819658905 7.293355709136913 0.0 0.0 0.0 46.87624170604845" Properties=species:S:1:pos:R:3:tags:I:1:forces:R:3 charge=0 spin=0 energy=-72.363392821302 free_energy=-72.363392821302 stress="0.00976549368351698 8.040630746108945e-06 4.7221842578437645e-06 8.040630746108945e-06 0.00978660024702549 -9.448683613300091e-07 4.7221842578437645e-06 -9.448683613300091e-07 -0.000326584093272686" pbc="T T T"
Pt      -0.00000001       0.00000022      19.95723425        4      -0.00015330       0.00006939       0.02108675
Pt       2.80721397      -0.00000009      19.95723437        4       0.00505669      -0.01369250       0.01554512
Pt       5.61442779      -0.00000006      19.95723442        4      -0.01189068      -0.01277915       0.01495308
Pt       1.40360720       2.43111836      19.95723428        4      -0.00584379       0.01678295       0.01475009
Pt       4.21082081       2.43111834      19.95723435        4      -0.00020498       0.00012078       0.01167047
Pt       7.01803481       2.43111842      19.95723424        4       0.00917223       0.01145193       0.01541134
Pt       2.80721405       4.86223723      19.95723396        4      -0.01485054       0.00260059       0.01520768
Pt       5.61442805       4.86223729      19.95723414        4       0.01700771      -0.00305819       0.01502150
Pt       8.42164141       4.86223719      19.95723428        4       0.00001181      -0.00003528      -0.05044282
Pt       1.40360726       0.81037260      22.29206791        3       0.01043776       0.02614713      -0.07535043
Pt       4.21082130       0.81037249      22.29206785        3      -0.00315950       0.00831589      -0.06345526
Pt       7.01803472       0.81037257      22.29206783        3      -0.02853536      -0.00314008      -0.07476284
Pt       2.80721450       3.24149124      22.29206777        3       0.00672676      -0.00081941      -0.06518639
Pt       5.61442762       3.24149124      22.29206789        3      -0.00608919      -0.00459292      -0.06540439
Pt       8.42164156       3.24149128      22.29206809        3      -0.00357989       0.02853440      -0.05453086
Pt       4.21082092       5.67260996      22.29206799        3       0.01638370      -0.02105258      -0.07528114
Pt       7.01803487       5.67261037      22.29206782        3       0.02504111      -0.01044470      -0.05460231
Pt       9.82524820       5.67261064      22.29206809        3      -0.02361833      -0.01507614      -0.05432250
Pt      -0.00000052       1.62074570      24.58417379        2       0.01655238      -0.09766126       0.22266681
Pt       2.80721442       1.62074548      24.58417394        2       0.02719972       0.00203884       0.00071513
Pt       5.61442780       1.62074537      24.58417373        2      -0.01499833       0.01550813       0.00274072
Pt       1.40360637       4.05186438      24.58417386        2      -0.07043203       0.03351315      -0.04554733
Pt       4.21082089       4.05186400      24.58417379        2      -0.00327533      -0.02667164       0.00020476
Pt       7.01803504       4.05186405      24.58417405        2       0.07129365       0.03982287      -0.04633263
Pt       2.80721281       6.48298343      24.58417366        2       0.07924133       0.05971447       0.21852265
Pt       5.61442797       6.48298326      24.58417386        2      -0.08671215       0.03318766       0.22514726
Pt       8.42164223       6.48298340      24.58417377        2       0.00462781      -0.08304898      -0.04554632
Pt      -1.01384832      -1.21989297      32.88995693        1      -0.01044611      -0.01588868      -0.01414890
Pt       2.82275253      -0.01236616      26.90597190        1      -0.00184750      -0.00243142      -0.00130526
Pt       5.60059881      -0.00059480      26.90816780        1      -0.00637851       0.00750803      -0.00234942
Pt       1.42048279       2.43963110      26.90881003        1      -0.00900458       0.00788732      -0.00643641
Pt       4.21303211       2.42771336      26.91545647        1       0.00266742       0.00096096      -0.00372628
Pt       7.02196886       2.44360772      26.90609342        1       0.00318728       0.00078983      -0.00163848
Pt       2.79603359       4.85468852      26.90472899        1      -0.00256122      -0.00553659       0.00600632
Pt       5.62238254       4.84179432      26.90873149        1       0.00205845       0.00345198      -0.00815301
Pt       8.42525644       4.85813655      26.94467654        1      -0.00353060       0.00163471      -0.00527552
C       -0.08696326      -0.31346161      34.08410142        0       0.00283697       0.01393143      -0.00398099
O        0.23641895       0.79398333      34.23990229        0      -0.00301929      -0.01667816       0.00017142
O       -0.82995949      -1.31615091      32.93758918        0       0.01062796       0.01863540       0.01795958
