39
Lattice="8.421641763931781 0.0 0.0 4.2108208819658905 7.293355709136913 0.0 0.0 0.0 46.87624170604845" Properties=species:S:1:pos:R:3:tags:I:1:forces:R:3 charge=0 spin=0 energy=-76.99738024805981 free_energy=-76.99738024805981 stress="0.009319531731307507 -2.5369350623805076e-05 -7.913559784356039e-06 -2.5369350623805076e-05 0.009366166777908802 -1.060779504769016e-05 -7.913559784356039e-06 -1.060779504769016e-05 -0.000463542906800285" pbc="T T T"
Pt      -0.00000001       0.00000022      19.95723425        4      -0.00047903      -0.00077250       0.02228289
Pt       2.80721397      -0.00000009      19.95723437        4       0.00158134      -0.01582428       0.01206222
Pt       5.61442779      -0.00000006      19.95723442        4      -0.01021072      -0.01278629       0.00617388
Pt       1.40360720       2.43111836      19.95723428        4      -0.00521302       0.01338487       0.01453703
Pt       4.21082081       2.43111834      19.95723435        4       0.00006348       0.00197485       0.00732674
Pt       7.01803481       2.43111842      19.95723424        4       0.01412316       0.00706508       0.00940784
Pt       2.80721405       4.86223723      19.95723396        4      -0.01253274       0.00290887       0.01212361
Pt       5.61442805       4.86223729      19.95723414        4       0.01466910      -0.00078834       0.01028131
Pt       8.42164141       4.86223719      19.95723428        4       0.00216778       0.00074528      -0.05975249
Pt       1.40360726       0.81037260      22.29206791        3       0.03976186       0.03727835      -0.10850598
Pt       4.21082130       0.81037249      22.29206785        3      -0.01776999       0.01011697      -0.05924114
Pt       7.01803472       0.81037257      22.29206783        3      -0.05965894       0.00800287      -0.10417917
Pt       2.80721450       3.24149124      22.29206777        3       0.00974624       0.00463174      -0.06559508
Pt       5.61442762       3.24149124      22.29206789        3      -0.01244944      -0.00797687      -0.06813905
Pt       8.42164156       3.24149128      22.29206809        3      -0.00037184       0.01457934      -0.03345658
Pt       4.21082092       5.67260996      22.29206799        3       0.01038178      -0.05802813      -0.12265228
Pt       7.01803487       5.67261037      22.29206782        3       0.02488112      -0.00520740      -0.04813268
Pt       9.82524820       5.67261064      22.29206809        3      -0.01043301      -0.02377596      -0.03079818
Pt      -0.00000052       1.62074570      24.58417379        2       0.00645714      -0.00516092       0.16750683
Pt       2.80721442       1.62074548      24.58417394        2       0.06499153      -0.03563230      -0.01263511
Pt       5.61442780       1.62074537      24.58417373        2      -0.00981711       0.00809357       0.11318091
Pt       1.40360637       4.05186438      24.58417386        2      -0.11646540       0.03649011      -0.13293090
Pt       4.21082089       4.05186400      24.58417379        2       0.03694595      -0.02683430      -0.04492722
Pt       7.01803504       4.05186405      24.58417405        2       0.05039060       0.03402568       0.02256087
Pt       2.80721281       6.48298343      24.58417366        2      -0.02745147       0.07239532       0.18171664
Pt       5.61442797       6.48298326      24.58417386        2       0.01524978      -0.01462463       0.23932886
Pt       8.42164223       6.48298340      24.58417377        2      -0.00676515      -0.04438969       0.07379975
Pt      -2.67624540      -3.33967343      32.61854432        1      -0.00315114      -0.03147879      -0.00126480
Pt       4.22633935       2.42451463      26.92660159        1      -0.00113095       0.00312814      -0.00051317
Pt       5.60229650       0.00693492      26.94178849        1      -0.00134007       0.00305513      -0.00121378
Pt       1.43372812       2.45683225      26.90240745        1      -0.00238861      -0.00172039       0.00121172
Pt       5.61657779       4.85180306      26.93645972        1      -0.00070994      -0.00056349      -0.00072383
Pt       7.02527931       2.45434149      26.92718355        1       0.00468135      -0.00022081       0.00401967
Pt       2.79528754       4.86169250      26.88994206        1       0.00037257       0.00057185      -0.00192529
Pt       7.02493339       7.29671056      26.93471599        1      -0.00474466      -0.00245066      -0.00512539
Pt       8.42824702       4.88227264      26.96772117        1       0.00119340       0.00257814      -0.00085212
C       -2.28552511      -3.94859166      30.60242480        0      -0.01843354      -0.00095233       0.00880659
O       -1.32526254      -3.38119426      30.38729722        0       0.01823371       0.00638768      -0.01080523
O       -2.47085201      -3.29470932      32.69009967        0       0.00561830       0.02177568       0.00705138
