39
Lattice="8.421641763931781 0.0 0.0 4.2108208819658905 7.293355709136913 0.0 0.0 0.0 46.87624170604845" Properties=species:S:1:pos:R:3:tags:I:1:forces:R:3 charge=0 spin=0 energy=-90.39267443751294 free_energy=-90.39267443751294 stress="0.00974227488040924 3.1407413189299405e-05 1.5861010979278944e-05 3.1407413189299405e-05 0.009790213778614998 -1.1961095879087225e-05 1.5861010979278944e-05 -1.1961095879087225e-05 -0.0003325638535898179" pbc="T T T"
Pt      -0.00000001       0.00000022      19.95723425        4      -0.01599282       0.00307301       0.01483885
Pt       2.80721397      -0.00000009      19.95723437        4       0.01635093      -0.00299613       0.01514534
Pt       5.61442779      -0.00000006      19.95723442        4       0.00009370      -0.00013907      -0.05058796
Pt       1.40360720       2.43111836      19.95723428        4      -0.00109590       0.00014808       0.02122999
Pt       4.21082081       2.43111834      19.95723435        4       0.00464666      -0.01336012       0.01533452
Pt       7.01803481       2.43111842      19.95723424        4      -0.01263007      -0.01212541       0.01509370
Pt       2.80721405       4.86223723      19.95723396        4      -0.00674770       0.01730257       0.01475023
Pt       5.61442805       4.86223729      19.95723414        4      -0.00059730       0.00027198       0.01139034
Pt       8.42164141       4.86223719      19.95723428        4       0.00852515       0.01156696       0.01536998
Pt       1.40360726       0.81037260      22.29206791        3       0.01472288      -0.02013659      -0.07589328
Pt       4.21082130       0.81037249      22.29206785        3       0.02214271      -0.00897604      -0.05753568
Pt       7.01803472       0.81037257      22.29206783        3      -0.02709197      -0.01233103      -0.05264034
Pt       2.80721450       3.24149124      22.29206777        3       0.00856046       0.02718776      -0.07752988
Pt       5.61442762       3.24149124      22.29206789        3      -0.00661010       0.01002321      -0.06273934
Pt       8.42164156       3.24149128      22.29206809        3      -0.03165073      -0.00178419      -0.07451852
Pt       4.21082092       5.67260996      22.29206799        3       0.00401954       0.00073264      -0.06562777
Pt       7.01803487       5.67261037      22.29206782        3      -0.00840419      -0.00287424      -0.06524471
Pt       9.82524820       5.67261064      22.29206809        3      -0.00686283       0.03049143      -0.05273249
Pt      -0.00000052       1.62074570      24.58417379        2       0.08388163       0.05710815       0.22183007
Pt       2.80721442       1.62074548      24.58417394        2      -0.08281631       0.02589991       0.22908252
Pt       5.61442780       1.62074537      24.58417373        2       0.02486639      -0.09125856      -0.05492679
Pt       1.40360637       4.05186438      24.58417386        2       0.02889669      -0.09915350       0.22866665
Pt       4.21082089       4.05186400      24.58417379        2       0.03105761       0.00399128       0.00017584
Pt       7.01803504       4.05186405      24.58417405        2      -0.00343155       0.00493598      -0.00595947
Pt       2.80721281       6.48298343      24.58417366        2      -0.06354076       0.02327962      -0.03427377
Pt       5.61442797       6.48298326      24.58417386        2       0.00465935      -0.02909203      -0.00094443
Pt       8.42164223       6.48298340      24.58417377        2       0.08078556       0.03453327      -0.05244666
Pt       3.79935486       0.26371863      34.45260278        1       0.02944453      -0.02621672       0.02881146
Pt       2.82631833      -0.02840944      26.90901583        1      -0.01086753       0.02557915      -0.01632377
Pt       5.62593790      -0.01129156      26.94452503        1       0.00991585       0.00045444      -0.00436398
Pt       2.83584778       4.86218577      26.91224228        1      -0.02021848       0.01738040      -0.03000458
Pt       4.24283005       2.41077636      26.90051112        1      -0.03415859       0.00768301       0.01912153
Pt       7.01416191       2.42747754      26.91065462        1      -0.00257193      -0.00689254      -0.01012321
Pt       4.20838435       7.28068297      26.90410648        1      -0.00354890      -0.00749084       0.00664112
Pt       5.63270261       4.85230227      26.91272200        1      -0.02710569       0.00701008       0.00750511
Pt       8.43179239       4.86896446      26.90500852        1       0.02281833      -0.00004281       0.00824120
C       -2.03827199      -0.72779651      40.12431075        0      -0.00861363       0.00325258      -0.00510821
O       -1.09885221      -1.08252468      40.68141480        0       0.00861363      -0.00325258       0.00510821
O        3.93651009       0.14157620      34.58681010        0      -0.02944453       0.02621672      -0.02881146
