39
Lattice="8.421641763931781 0.0 0.0 4.2108208819658905 7.293355709136913 0.0 0.0 0.0 46.87624170604845" Properties=species:S:1:pos:R:3:tags:I:1:forces:R:3 charge=0 spin=0 energy=-209.36511515711743 free_energy=-209.36511515711743 stress="0.010441474616527557 2.073287763693088e-09 -8.90927775998307e-09 2.073287763693088e-09 0.010441496036946774 -8.745123736275673e-09 -8.90927775998307e-09 -8.745123736275673e-09 -0.0001625545701244846" pbc="T T T"
Pt      -0.00000001       0.00000022      19.95723425        4       0.00000289      -0.00000330       0.01507288
Pt       2.80721397      -0.00000009      19.95723437        4      -0.00005333       0.00025231       0.01553168
Pt       5.61442779      -0.00000006      19.95723442        4       0.00019418      -0.00006614       0.01544417
Pt       1.40360720       2.43111836      19.95723428        4      -0.00015946      -0.00013304       0.01545500
Pt       4.21082081       2.43111834      19.95723435        4       0.00000169       0.00000127       0.01537850
Pt       7.01803481       2.43111842      19.95723424        4      -0.00019201      -0.00016890       0.01553513
Pt       2.80721405       4.86223723      19.95723396        4       0.00024167      -0.00008459       0.01553089
Pt       5.61442805       4.86223729      19.95723414        4      -0.00003702       0.00020079       0.01545369
Pt       8.42164141       4.86223719      19.95723428        4       0.00000148      -0.00000046       0.01496915
Pt       1.40360726       0.81037260      22.29206791        3      -0.00043426       0.00006879      -0.04625019
Pt       4.21082130       0.81037249      22.29206785        3      -0.00041492      -0.00000621      -0.04576355
Pt       7.01803472       0.81037257      22.29206783        3       0.00015683      -0.00041043      -0.04624808
Pt       2.80721450       3.24149124      22.29206777        3       0.00018801       0.00036649      -0.04577361
Pt       5.61442762       3.24149124      22.29206789        3       0.00022057      -0.00034936      -0.04577170
Pt       8.42164156       3.24149128      22.29206809        3       0.00021170      -0.00190756      -0.04120573
Pt       4.21082092       5.67260996      22.29206799        3       0.00027505       0.00033827      -0.04626687
Pt       7.01803487       5.67261037      22.29206782        3      -0.00176166       0.00076695      -0.04120910
Pt       9.82524820       5.67261064      22.29206809        3       0.00155525       0.00112468      -0.04121067
Pt      -0.00000052       1.62074570      24.58417379        2      -0.00015054       0.00589726       0.01281475
Pt       2.80721442       1.62074548      24.58417394        2       0.00120906       0.00046435       0.02748578
Pt       5.61442780       1.62074537      24.58417373        2      -0.00103115       0.00077138       0.02747385
Pt       1.40360637       4.05186438      24.58417386        2      -0.00003121       0.00017708       0.02198206
Pt       4.21082089       4.05186400      24.58417379        2      -0.00019364      -0.00127611       0.02735465
Pt       7.01803504       4.05186405      24.58417405        2       0.00017836      -0.00005396       0.02195923
Pt       2.80721281       6.48298343      24.58417366        2      -0.00504593      -0.00308125       0.01283128
Pt       5.61442797       6.48298326      24.58417386        2       0.00522109      -0.00276352       0.01282838
Pt       8.42164223       6.48298340      24.58417377        2      -0.00014841      -0.00011616       0.02209165
Pt      -0.00000074      -0.00000146      26.91089908        1       0.00000970       0.00004216       0.00629163
Pt       2.80746434      -0.00158417      26.91476688        1      -0.00146387       0.01319466       0.00844620
Pt       5.61473296      -0.00098945      26.91487497        1      -0.00034218       0.01125058       0.00817867
Pt       1.40259626       2.43134107      26.91485659        1       0.00991398      -0.00537844       0.00825191
Pt       4.21082056       2.43114460      26.91439479        1       0.00000419      -0.00015042       0.00493890
Pt       7.01929054       2.43211799      26.91473834        1      -0.01068020      -0.00790474       0.00856077
Pt       2.80571858       4.86282999      26.91473649        1       0.01208494      -0.00529338       0.00856370
Pt       5.61512905       4.86301159      26.91483629        1      -0.00953401      -0.00586591       0.00832339
Pt       8.42164325       4.86222363      26.91391864        1      -0.00000140       0.00009419       0.01215393
C       -0.00000436      -0.00004653      31.98228971        0      -0.00000891      -0.00009965      -0.03261087
O        0.00000557       0.00005077      33.16317373        0       0.00000693       0.00005319       0.02282462
O       -0.00001635      -0.00016001      30.80177691        0       0.00000672       0.00004881       0.01058402
