39
Lattice="8.421641763931781 0.0 0.0 4.2108208819658905 7.293355709136913 0.0 0.0 0.0 46.87624170604845" Properties=species:S:1:pos:R:3:tags:I:1:forces:R:3 charge=0 spin=0 energy=-209.36504172419507 free_energy=-209.36504172419507 stress="0.010491695255041122 -7.332361384726482e-10 3.0978273279913537e-09 -7.332361384726482e-10 0.010491703636944294 6.155880249991696e-10 3.0978273279913537e-09 6.155880249991696e-10 -4.648833055398427e-05" pbc="T T T"
Pt      -0.00000001       0.00000022      19.95723425        4       0.00000261      -0.00000165       0.01519682
Pt       2.80721397      -0.00000009      19.95723437        4       0.00004741       0.00031218       0.01563393
Pt       5.61442779      -0.00000006      19.95723442        4       0.00005703      -0.00004970       0.01553446
Pt       1.40360720       2.43111836      19.95723428        4      -0.00007683      -0.00002223       0.01554294
Pt       4.21082081       2.43111834      19.95723435        4       0.00000165       0.00000090       0.01529599
Pt       7.01803481       2.43111842      19.95723424        4      -0.00029399      -0.00011077       0.01563494
Pt       2.80721405       4.86223723      19.95723396        4       0.00024419      -0.00020123       0.01563331
Pt       5.61442805       4.86223729      19.95723414        4       0.00001685       0.00007352       0.01554393
Pt       8.42164141       4.86223719      19.95723428        4       0.00000135      -0.00000101       0.01502708
Pt       1.40360726       0.81037260      22.29206791        3      -0.00067785      -0.00010406      -0.04703276
Pt       4.21082130       0.81037249      22.29206785        3      -0.00036193      -0.00026789      -0.04507993
Pt       7.01803472       0.81037257      22.29206783        3       0.00042911      -0.00053097      -0.04702823
Pt       2.80721450       3.24149124      22.29206777        3      -0.00006300       0.00044748      -0.04508880
Pt       5.61442762       3.24149124      22.29206789        3       0.00041742      -0.00017036      -0.04508325
Pt       8.42164156       3.24149128      22.29206809        3       0.00019956      -0.00201194      -0.04156736
Pt       4.21082092       5.67260996      22.29206799        3       0.00024657       0.00064232      -0.04704037
Pt       7.01803487       5.67261037      22.29206782        3      -0.00184380       0.00083195      -0.04156991
Pt       9.82524820       5.67261064      22.29206809        3       0.00165146       0.00116437      -0.04157036
Pt      -0.00000052       1.62074570      24.58417379        2      -0.00022087       0.00554806       0.03315178
Pt       2.80721442       1.62074548      24.58417394        2       0.00066781       0.00026557       0.03701041
Pt       5.61442780       1.62074537      24.58417373        2      -0.00055618       0.00045057       0.03700894
Pt       1.40360637       4.05186438      24.58417386        2       0.00320745      -0.00110292       0.02935765
Pt       4.21082089       4.05186400      24.58417379        2      -0.00011611      -0.00070214       0.03697034
Pt       7.01803504       4.05186405      24.58417405        2      -0.00256071      -0.00222943       0.02936686
Pt       2.80721281       6.48298343      24.58417366        2      -0.00468487      -0.00298448       0.03315124
Pt       5.61442797       6.48298326      24.58417386        2       0.00492444      -0.00257009       0.03314752
Pt       8.42164223       6.48298340      24.58417377        2      -0.00065693       0.00331965       0.02940027
Pt       0.00000109      -0.00000058      26.91474215        1      -0.00000808      -0.00000351      -0.01706698
Pt       2.80875815       0.00008308      26.91798669        1      -0.01488956       0.00157044      -0.00676273
Pt       5.61307227       0.00026464      26.91787656        1       0.01451313       0.00126593      -0.00598228
Pt       1.40451639       2.43215744      26.91787622        1      -0.00614201      -0.01324343      -0.00600766
Pt       4.21082303       2.43112014      26.91733801        1       0.00000213      -0.00000347      -0.00256848
Pt       7.01719822       2.43240623      26.91798711        1       0.00606849      -0.01369048      -0.00680520
Pt       2.80650688       4.86086154      26.91798311        1       0.00881970       0.01215110      -0.00679650
Pt       5.61487370       4.86093584      26.91787075        1      -0.00836511       0.01195742      -0.00601996
Pt       8.42163979       4.86223667      26.91254999        1       0.00000070       0.00000200       0.01740298
C        0.00000109      -0.00000120      31.96685099        0      -0.00000340      -0.00000491       0.00007718
O       -0.00000057       0.00000144      33.14827392        0       0.00000102       0.00000124      -0.03070823
O        0.00000212      -0.00000453      30.78611995        0       0.00000102       0.00000183       0.03469032
