39
Lattice="8.421641763931781 0.0 0.0 4.2108208819658905 7.293355709136913 0.0 0.0 0.0 46.87624170604845" Properties=species:S:1:pos:R:3:tags:I:1:forces:R:3 charge=0 spin=0 energy=-209.3640785131355 free_energy=-209.3640785131355 stress="0.010442720726132393 1.1389785781190653e-09 -9.539991907558942e-09 1.1389785781190653e-09 0.010442725382745266 4.223784877410708e-09 -9.539991907558942e-09 4.223784877410708e-09 -0.0001275675604119897" pbc="T T T"
Pt      -0.00000001       0.00000022      19.95723425        4       0.00000246      -0.00000218       0.01478319
Pt       2.80721397      -0.00000009      19.95723437        4      -0.00006316       0.00031071       0.01545112
Pt       5.61442779      -0.00000006      19.95723442        4       0.00014841       0.00010428       0.01536408
Pt       1.40360720       2.43111836      19.95723428        4       0.00000974      -0.00017736       0.01537757
Pt       4.21082081       2.43111834      19.95723435        4       0.00000176       0.00000068       0.01514129
Pt       7.01803481       2.43111842      19.95723424        4      -0.00023677      -0.00020669       0.01545634
Pt       2.80721405       4.86223723      19.95723396        4       0.00029748      -0.00010565       0.01545560
Pt       5.61442805       4.86223729      19.95723414        4      -0.00016112       0.00007605       0.01537863
Pt       8.42164141       4.86223719      19.95723428        4       0.00000114      -0.00000013       0.01491232
Pt       1.40360726       0.81037260      22.29206791        3      -0.00028410       0.00015621      -0.04533543
Pt       4.21082130       0.81037249      22.29206785        3      -0.00027233      -0.00030183      -0.04547868
Pt       7.01803472       0.81037257      22.29206783        3       0.00000937      -0.00032041      -0.04532996
Pt       2.80721450       3.24149124      22.29206777        3      -0.00013588       0.00038928      -0.04548549
Pt       5.61442762       3.24149124      22.29206789        3       0.00040257      -0.00007855      -0.04548413
Pt       8.42164156       3.24149128      22.29206809        3       0.00017263      -0.00101441      -0.04312010
Pt       4.21082092       5.67260996      22.29206799        3       0.00027194       0.00016855      -0.04534301
Pt       7.01803487       5.67261037      22.29206782        3      -0.00097142       0.00036101      -0.04312286
Pt       9.82524820       5.67261064      22.29206809        3       0.00080645       0.00064378      -0.04312513
Pt      -0.00000052       1.62074570      24.58417379        2      -0.00011759       0.00429518       0.01864472
Pt       2.80721442       1.62074548      24.58417394        2      -0.00356768      -0.00240941       0.01492277
Pt       5.61442780       1.62074537      24.58417373        2       0.00385860      -0.00191087       0.01491597
Pt       1.40360637       4.05186438      24.58417386        2       0.00039436      -0.00010904       0.03365564
Pt       4.21082089       4.05186400      24.58417379        2      -0.00030245       0.00430436       0.01487049
Pt       7.01803504       4.05186405      24.58417405        2      -0.00026660      -0.00028101       0.03362298
Pt       2.80721281       6.48298343      24.58417366        2      -0.00367067      -0.00224917       0.01865409
Pt       5.61442797       6.48298326      24.58417386        2       0.00379133      -0.00202100       0.01864945
Pt       8.42164223       6.48298340      24.58417377        2      -0.00011653       0.00037268       0.03370724
Pt      -0.00000086      -0.00000057      26.91408483        1       0.00000429       0.00000395       0.00276333
Pt       2.80559026       0.00122599      26.91546696        1       0.01181339      -0.01364909       0.00441873
Pt       5.61673194       0.00186225      26.91565356        1      -0.01403906      -0.01577232       0.00387611
Pt       1.40406923       2.42817726      26.91564525        1      -0.00662941       0.02008470       0.00386267
Pt       4.21081901       2.43111781      26.90821261        1      -0.00000130       0.00001525       0.03771111
Pt       7.01778037       2.42909399      26.91545470        1       0.00595404       0.01703538       0.00441905
Pt       2.80908953       4.86304233      26.91545096        1      -0.01774977      -0.00344510       0.00444320
Pt       5.61166422       4.86330545      26.91563176        1       0.02065494      -0.00425795       0.00391432
Pt       8.42164596       4.86223471      26.91398063        1      -0.00001406      -0.00000804       0.00214893
C        0.00000031       0.00000131      32.11219529        0       0.00000665      -0.00000440      -0.01791277
O        0.00000018      -0.00000015      33.29353253        0      -0.00000075       0.00000151      -0.01042499
O        0.00000102       0.00000257      30.93158774        0      -0.00000070       0.00000088       0.02364183
