39
Lattice="8.421641763931781 0.0 0.0 4.2108208819658905 7.293355709136913 0.0 0.0 0.0 46.87624170604845" Properties=species:S:1:pos:R:3:tags:I:1:forces:R:3 charge=0 spin=0 energy=-209.3650436315437 free_energy=-209.3650436315437 stress="0.010491694323718548 -3.732318010207791e-09 3.280165916663691e-09 -3.732318010207791e-09 0.010491701774299145 4.826353983133913e-09 3.280165916663691e-09 4.826353983133913e-09 -4.665798041969538e-05" pbc="T T T"
Pt      -0.00000001       0.00000022      19.95723425        4       0.00000279      -0.00000179       0.01519676
Pt       2.80721397      -0.00000009      19.95723437        4       0.00004747       0.00031210       0.01563393
Pt       5.61442779      -0.00000006      19.95723442        4       0.00005696      -0.00004957       0.01553431
Pt       1.40360720       2.43111836      19.95723428        4      -0.00007676      -0.00002227       0.01554309
Pt       4.21082081       2.43111834      19.95723435        4       0.00000175       0.00000067       0.01529604
Pt       7.01803481       2.43111842      19.95723424        4      -0.00029411      -0.00011082       0.01563484
Pt       2.80721405       4.86223723      19.95723396        4       0.00024427      -0.00020127       0.01563337
Pt       5.61442805       4.86223729      19.95723414        4       0.00001691       0.00007360       0.01554410
Pt       8.42164141       4.86223719      19.95723428        4       0.00000145      -0.00000109       0.01502712
Pt       1.40360726       0.81037260      22.29206791        3      -0.00067770      -0.00010406      -0.04703250
Pt       4.21082130       0.81037249      22.29206785        3      -0.00036196      -0.00026798      -0.04507960
Pt       7.01803472       0.81037257      22.29206783        3       0.00042911      -0.00053095      -0.04702819
Pt       2.80721450       3.24149124      22.29206777        3      -0.00006295       0.00044769      -0.04508860
Pt       5.61442762       3.24149124      22.29206789        3       0.00041755      -0.00017023      -0.04508309
Pt       8.42164156       3.24149128      22.29206809        3       0.00019923      -0.00201152      -0.04156661
Pt       4.21082092       5.67260996      22.29206799        3       0.00024656       0.00064259      -0.04704097
Pt       7.01803487       5.67261037      22.29206782        3      -0.00184386       0.00083199      -0.04157006
Pt       9.82524820       5.67261064      22.29206809        3       0.00165161       0.00116443      -0.04157096
Pt      -0.00000052       1.62074570      24.58417379        2      -0.00022098       0.00554584       0.03315425
Pt       2.80721442       1.62074548      24.58417394        2       0.00066888       0.00026625       0.03701238
Pt       5.61442780       1.62074537      24.58417373        2      -0.00055764       0.00045118       0.03701099
Pt       1.40360637       4.05186438      24.58417386        2       0.00320608      -0.00110413       0.02935543
Pt       4.21082089       4.05186400      24.58417379        2      -0.00011621      -0.00070532       0.03696730
Pt       7.01803504       4.05186405      24.58417405        2      -0.00255903      -0.00223064       0.02936406
Pt       2.80721281       6.48298343      24.58417366        2      -0.00468345      -0.00298173       0.03315085
Pt       5.61442797       6.48298326      24.58417386        2       0.00492277      -0.00256700       0.03314706
Pt       8.42164223       6.48298340      24.58417377        2      -0.00065711       0.00332007       0.02940052
Pt       0.00000098      -0.00000049      26.91474286        1      -0.00000593      -0.00000186      -0.01707701
Pt       2.80875801       0.00008316      26.91798669        1      -0.01488700       0.00157047      -0.00676463
Pt       5.61307238       0.00026461      26.91787677        1       0.01451141       0.00126728      -0.00598277
Pt       1.40451630       2.43215737      26.91787617        1      -0.00614137      -0.01324195      -0.00601073
Pt       4.21082302       2.43112022      26.91733859        1       0.00000227      -0.00000490      -0.00257624
Pt       7.01719825       2.43240626      26.91798707        1       0.00606792      -0.01369098      -0.00680581
Pt       2.80650690       4.86086152      26.91798239        1       0.00881853       0.01214919      -0.00679016
Pt       5.61487376       4.86093586      26.91787016        1      -0.00836596       0.01195830      -0.00600880
Pt       8.42163958       4.86223655      26.91255000        1      -0.00000002       0.00000241       0.01740226
C        0.00000104      -0.00000126      31.96683748        0      -0.00000675      -0.00000660       0.00008987
O        0.00000005       0.00000162      33.14825856        0       0.00000260       0.00000105      -0.03052154
O        0.00000156      -0.00000455      30.78610786        0       0.00000261       0.00000147       0.03449957
