39
Lattice="8.421641763931781 0.0 0.0 4.2108208819658905 7.293355709136913 0.0 0.0 0.0 46.87624170604845" Properties=species:S:1:pos:R:3:tags:I:1:forces:R:3 charge=0 spin=0 energy=-209.3650436315437 free_energy=-209.3650436315437 stress="0.01049169059842825 2.597194459497132e-09 4.254753882548812e-09 2.597194459497132e-09 0.010491701774299145 4.844299628103954e-09 4.254753882548812e-09 4.844299628103954e-09 -4.658784018829465e-05" pbc="T T T"
Pt      -0.00000001       0.00000022      19.95723425        4       0.00000267      -0.00000167       0.01519695
Pt       2.80721397      -0.00000009      19.95723437        4       0.00004737       0.00031202       0.01563376
Pt       5.61442779      -0.00000006      19.95723442        4       0.00005719      -0.00004972       0.01553441
Pt       1.40360720       2.43111836      19.95723428        4      -0.00007674      -0.00002237       0.01554296
Pt       4.21082081       2.43111834      19.95723435        4       0.00000163       0.00000076       0.01529610
Pt       7.01803481       2.43111842      19.95723424        4      -0.00029392      -0.00011088       0.01563503
Pt       2.80721405       4.86223723      19.95723396        4       0.00024424      -0.00020128       0.01563337
Pt       5.61442805       4.86223729      19.95723414        4       0.00001700       0.00007353       0.01554391
Pt       8.42164141       4.86223719      19.95723428        4       0.00000130      -0.00000096       0.01502716
Pt       1.40360726       0.81037260      22.29206791        3      -0.00067812      -0.00010375      -0.04703202
Pt       4.21082130       0.81037249      22.29206785        3      -0.00036166      -0.00026760      -0.04507991
Pt       7.01803472       0.81037257      22.29206783        3       0.00042910      -0.00053106      -0.04702816
Pt       2.80721450       3.24149124      22.29206777        3      -0.00006304       0.00044760      -0.04508881
Pt       5.61442762       3.24149124      22.29206789        3       0.00041745      -0.00017046      -0.04508252
Pt       8.42164156       3.24149128      22.29206809        3       0.00019980      -0.00201200      -0.04156784
Pt       4.21082092       5.67260996      22.29206799        3       0.00024653       0.00064255      -0.04704074
Pt       7.01803487       5.67261037      22.29206782        3      -0.00184391       0.00083193      -0.04156965
Pt       9.82524820       5.67261064      22.29206809        3       0.00165137       0.00116437      -0.04157087
Pt      -0.00000052       1.62074570      24.58417379        2      -0.00021921       0.00554543       0.03315078
Pt       2.80721442       1.62074548      24.58417394        2       0.00066933       0.00026643       0.03701249
Pt       5.61442780       1.62074537      24.58417373        2      -0.00055929       0.00045235       0.03700715
Pt       1.40360637       4.05186438      24.58417386        2       0.00320615      -0.00110418       0.02935504
Pt       4.21082089       4.05186400      24.58417379        2      -0.00011473      -0.00070479       0.03696954
Pt       7.01803504       4.05186405      24.58417405        2      -0.00256118      -0.00222721       0.02936481
Pt       2.80721281       6.48298343      24.58417366        2      -0.00468177      -0.00298253       0.03314668
Pt       5.61442797       6.48298326      24.58417386        2       0.00492294      -0.00256908       0.03314775
Pt       8.42164223       6.48298340      24.58417377        2      -0.00065853       0.00331937       0.02939812
Pt       0.00000102      -0.00000049      26.91474267        1      -0.00000594      -0.00000248      -0.01707684
Pt       2.80875771       0.00008316      26.91798606        1      -0.01488626       0.00157113      -0.00676277
Pt       5.61307297       0.00026464      26.91787589        1       0.01450754       0.00126802      -0.00597621
Pt       1.40451616       2.43215728      26.91787532        1      -0.00613997      -0.01324175      -0.00600825
Pt       4.21082297       2.43112027      26.91734025        1       0.00000129      -0.00000333      -0.00257675
Pt       7.01719852       2.43240592      26.91798641        1       0.00606494      -0.01368585      -0.00680017
Pt       2.80650698       4.86086192      26.91798165        1       0.00882151       0.01214916      -0.00678274
Pt       5.61487357       4.86093636      26.91787066        1      -0.00836215       0.01195243      -0.00602157
Pt       8.42163968       4.86223676      26.91255090        1      -0.00000057       0.00000006       0.01740303
C        0.00000082      -0.00000143      31.96681682        0      -0.00000510      -0.00000991       0.00025270
O        0.00000003       0.00000147      33.14823932        0       0.00000142       0.00000263      -0.03070000
O        0.00000113      -0.00000483      30.78608708        0       0.00000138       0.00000305       0.03451416
