39
Lattice="8.421641763931781 0.0 0.0 4.2108208819658905 7.293355709136913 0.0 0.0 0.0 46.87624170604845" Properties=species:S:1:pos:R:3:tags:I:1:forces:R:3 charge=0 spin=0 energy=-209.36504553889233 free_energy=-209.36504553889233 stress="0.010491685010492802 -2.657405628880838e-09 3.0849849341763047e-09 -2.657405628880838e-09 0.010491695255041122 -9.285256119540009e-09 3.0849849341763047e-09 -9.285256119540009e-09 -4.652857023756951e-05" pbc="T T T"
Pt      -0.00000001       0.00000022      19.95723425        4       0.00000273      -0.00000160       0.01519686
Pt       2.80721397      -0.00000009      19.95723437        4       0.00004739       0.00031203       0.01563388
Pt       5.61442779      -0.00000006      19.95723442        4       0.00005702      -0.00004965       0.01553444
Pt       1.40360720       2.43111836      19.95723428        4      -0.00007681      -0.00002230       0.01554315
Pt       4.21082081       2.43111834      19.95723435        4       0.00000168       0.00000073       0.01529618
Pt       7.01803481       2.43111842      19.95723424        4      -0.00029390      -0.00011083       0.01563484
Pt       2.80721405       4.86223723      19.95723396        4       0.00024427      -0.00020133       0.01563329
Pt       5.61442805       4.86223729      19.95723414        4       0.00001691       0.00007354       0.01554396
Pt       8.42164141       4.86223719      19.95723428        4       0.00000128      -0.00000110       0.01502723
Pt       1.40360726       0.81037260      22.29206791        3      -0.00067815      -0.00010404      -0.04703169
Pt       4.21082130       0.81037249      22.29206785        3      -0.00036165      -0.00026737      -0.04507961
Pt       7.01803472       0.81037257      22.29206783        3       0.00042919      -0.00053111      -0.04702812
Pt       2.80721450       3.24149124      22.29206777        3      -0.00006305       0.00044764      -0.04508854
Pt       5.61442762       3.24149124      22.29206789        3       0.00041755      -0.00017033      -0.04508322
Pt       8.42164156       3.24149128      22.29206809        3       0.00019965      -0.00201197      -0.04156740
Pt       4.21082092       5.67260996      22.29206799        3       0.00024653       0.00064263      -0.04704116
Pt       7.01803487       5.67261037      22.29206782        3      -0.00184396       0.00083180      -0.04156948
Pt       9.82524820       5.67261064      22.29206809        3       0.00165157       0.00116432      -0.04157054
Pt      -0.00000052       1.62074570      24.58417379        2      -0.00021939       0.00554759       0.03314797
Pt       2.80721442       1.62074548      24.58417394        2       0.00066951       0.00026640       0.03701223
Pt       5.61442780       1.62074537      24.58417373        2      -0.00055930       0.00045033       0.03700913
Pt       1.40360637       4.05186438      24.58417386        2       0.00320603      -0.00110407       0.02935499
Pt       4.21082089       4.05186400      24.58417379        2      -0.00011631      -0.00070562       0.03696751
Pt       7.01803504       4.05186405      24.58417405        2      -0.00255930      -0.00222818       0.02936211
Pt       2.80721281       6.48298343      24.58417366        2      -0.00468535      -0.00298241       0.03314745
Pt       5.61442797       6.48298326      24.58417386        2       0.00492465      -0.00256791       0.03314280
Pt       8.42164223       6.48298340      24.58417377        2      -0.00065724       0.00332030       0.02939955
Pt       0.00000107      -0.00000054      26.91474084        1      -0.00000832      -0.00000072      -0.01706783
Pt       2.80875788       0.00008319      26.91798611        1      -0.01488461       0.00157199      -0.00676323
Pt       5.61307250       0.00026464      26.91787656        1       0.01451119       0.00126860      -0.00598213
Pt       1.40451625       2.43215733      26.91787519        1      -0.00614029      -0.01324153      -0.00600779
Pt       4.21082306       2.43112016      26.91733881        1       0.00000159      -0.00000426      -0.00257652
Pt       7.01719843       2.43240610      26.91798672        1       0.00606554      -0.01369043      -0.00679672
Pt       2.80650685       4.86086160      26.91798224        1       0.00881584       0.01214249      -0.00679599
Pt       5.61487364       4.86093600      26.91787030        1      -0.00836175       0.01195179      -0.00601514
Pt       8.42163962       4.86223675      26.91255051        1       0.00000039       0.00000092       0.01740330
C        0.00000108      -0.00000137      31.96683134        0      -0.00000314      -0.00000057       0.00010040
O       -0.00000026       0.00000152      33.14825498        0       0.00000098       0.00000176      -0.03071315
O        0.00000206      -0.00000459      30.78609986        0       0.00000094       0.00000267       0.03468693
