39
Lattice="8.421641763931781 0.0 0.0 4.2108208819658905 7.293355709136913 0.0 0.0 0.0 46.87624170604845" Properties=species:S:1:pos:R:3:tags:I:1:forces:R:3 charge=0 spin=0 energy=-75.96107958888012 free_energy=-75.96107958888012 stress="0.00976361520588398 4.1352402035954583e-07 -5.166732535144547e-07 4.1352402035954583e-07 0.00974733754992485 4.228963462082902e-06 -5.166732535144547e-07 4.228963462082902e-06 -0.0003505815693642944" pbc="T T T"
Pt      -0.00000001       0.00000022      19.95723425        4       0.00522472      -0.01404630       0.01547568
Pt       2.80721397      -0.00000009      19.95723437        4      -0.01151109      -0.01334328       0.01494820
Pt       5.61442779      -0.00000006      19.95723442        4       0.00010028      -0.00004603       0.02111445
Pt       1.40360720       2.43111836      19.95723428        4       0.00005396      -0.00011634       0.01168922
Pt       4.21082081       2.43111834      19.95723435        4       0.00948324       0.01126517       0.01541166
Pt       7.01803481       2.43111842      19.95723424        4      -0.00562049       0.01639695       0.01480384
Pt       2.80721405       4.86223723      19.95723396        4       0.01724863      -0.00346286       0.01486060
Pt       5.61442805       4.86223729      19.95723414        4       0.00001045       0.00002155      -0.05045784
Pt       8.42164141       4.86223719      19.95723428        4      -0.01450984       0.00236805       0.01539794
Pt       1.40360726       0.81037260      22.29206791        3      -0.00201688       0.00684065      -0.06395639
Pt       4.21082130       0.81037249      22.29206785        3      -0.02778802      -0.00405467      -0.07487433
Pt       7.01803472       0.81037257      22.29206783        3       0.01121838       0.02524490      -0.07447944
Pt       2.80721450       3.24149124      22.29206777        3      -0.00520039      -0.00621546      -0.06530726
Pt       5.61442762       3.24149124      22.29206789        3      -0.00257709       0.02717608      -0.05514915
Pt       8.42164156       3.24149128      22.29206809        3       0.00776775      -0.00228969      -0.06513133
Pt       4.21082092       5.67260996      22.29206799        3       0.02582898      -0.01189188      -0.05382526
Pt       7.01803487       5.67261037      22.29206782        3      -0.02269137      -0.01701801      -0.05413926
Pt       9.82524820       5.67261064      22.29206809        3       0.01695240      -0.02245590      -0.07541306
Pt      -0.00000052       1.62074570      24.58417379        2       0.02310588       0.00604284      -0.00141174
Pt       2.80721442       1.62074548      24.58417394        2      -0.01713468       0.02064206      -0.00187282
Pt       5.61442780       1.62074537      24.58417373        2       0.01307413      -0.09559805       0.21988116
Pt       1.40360637       4.05186438      24.58417386        2      -0.00907625      -0.02120529      -0.00169924
Pt       4.21082089       4.05186400      24.58417379        2       0.06851558       0.04296837      -0.05227974
Pt       7.01803504       4.05186405      24.58417405        2      -0.07075771       0.03943047      -0.04959986
Pt       2.80721281       6.48298343      24.58417366        2      -0.08953515       0.03937190       0.21901429
Pt       5.61442797       6.48298326      24.58417386        2       0.00065745      -0.07785195      -0.04911858
Pt       8.42164223       6.48298340      24.58417377        2       0.07589760       0.06165045       0.22061174
Pt      -0.18675441       0.49169751      32.98800966        1      -0.00352094      -0.02940518       0.01938451
Pt       2.78879780       0.00590414      26.90731153        1       0.00086398      -0.00059767       0.00120920
Pt       8.43312524      -0.00719730      26.90599291        1       0.00034867      -0.00173826       0.00019357
Pt       1.40258052       2.43270983      26.91393076        1       0.00126646       0.00154127       0.00123435
Pt       4.21231640       2.44879547      26.90564888        1       0.00043135      -0.00189939       0.00038384
Pt       7.02904499       2.44633103      26.90787650        1      -0.00023749       0.00032867       0.00114779
Pt       2.81256703       4.84732156      26.90704085        1      -0.00044352      -0.00313990       0.00014005
Pt       5.61369416       4.86502057      26.94314316        1       0.00117892      -0.00323484       0.00197854
Pt       8.40671683       4.85833525      26.90593739        1      -0.00012873      -0.00108343      -0.00078085
C       -0.30350122      -1.16123221      34.27691751        0       0.00146361      -0.00823984       0.00505139
O        0.08267746      -0.69562277      35.23550175        0      -0.00128727      -0.00269461      -0.00103189
O       -0.20100006       0.65630100      33.12910100        0       0.00334520       0.04034323      -0.02340689
