39
Lattice="8.421641763931781 0.0 0.0 4.2108208819658905 7.293355709136913 0.0 0.0 0.0 46.87624170604845" Properties=species:S:1:pos:R:3:tags:I:1:forces:R:3 charge=0 spin=0 energy=-209.3640909109016 free_energy=-209.3640909109016 stress="0.010442834347486496 3.3066969162831583e-09 -8.7298772655231e-09 3.3066969162831583e-09 0.01044284924864769 4.45210535104934e-09 -8.7298772655231e-09 4.45210535104934e-09 -0.00012718628568109125" pbc="T T T"
Pt      -0.00000001       0.00000022      19.95723425        4       0.00000269      -0.00000207       0.01478363
Pt       2.80721397      -0.00000009      19.95723437        4      -0.00006348       0.00031117       0.01545165
Pt       5.61442779      -0.00000006      19.95723442        4       0.00014886       0.00010444       0.01536469
Pt       1.40360720       2.43111836      19.95723428        4       0.00000951      -0.00017799       0.01537820
Pt       4.21082081       2.43111834      19.95723435        4       0.00000175       0.00000086       0.01514179
Pt       7.01803481       2.43111842      19.95723424        4      -0.00023680      -0.00020704       0.01545695
Pt       2.80721405       4.86223723      19.95723396        4       0.00029786      -0.00010559       0.01545647
Pt       5.61442805       4.86223729      19.95723414        4      -0.00016153       0.00007641       0.01537909
Pt       8.42164141       4.86223719      19.95723428        4       0.00000115      -0.00000023       0.01491325
Pt       1.40360726       0.81037260      22.29206791        3      -0.00028391       0.00015654      -0.04533536
Pt       4.21082130       0.81037249      22.29206785        3      -0.00027338      -0.00030239      -0.04547985
Pt       7.01803472       0.81037257      22.29206783        3       0.00000887      -0.00032066      -0.04532930
Pt       2.80721450       3.24149124      22.29206777        3      -0.00013624       0.00038985      -0.04548609
Pt       5.61442762       3.24149124      22.29206789        3       0.00040278      -0.00007871      -0.04548512
Pt       8.42164156       3.24149128      22.29206809        3       0.00017215      -0.00101644      -0.04311776
Pt       4.21082092       5.67260996      22.29206799        3       0.00027223       0.00016799      -0.04534391
Pt       7.01803487       5.67261037      22.29206782        3      -0.00097326       0.00036192      -0.04312185
Pt       9.82524820       5.67261064      22.29206809        3       0.00080834       0.00064406      -0.04312357
Pt      -0.00000052       1.62074570      24.58417379        2      -0.00011756       0.00429305       0.01866720
Pt       2.80721442       1.62074548      24.58417394        2      -0.00357371      -0.00241215       0.01494674
Pt       5.61442780       1.62074537      24.58417373        2       0.00386545      -0.00191252       0.01494418
Pt       1.40360637       4.05186438      24.58417386        2       0.00040497      -0.00011462       0.03365571
Pt       4.21082089       4.05186400      24.58417379        2      -0.00030416       0.00430930       0.01489327
Pt       7.01803504       4.05186405      24.58417405        2      -0.00027469      -0.00029082       0.03362397
Pt       2.80721281       6.48298343      24.58417366        2      -0.00366824      -0.00224582       0.01867400
Pt       5.61442797       6.48298326      24.58417386        2       0.00378755      -0.00201789       0.01866700
Pt       8.42164223       6.48298340      24.58417377        2      -0.00011600       0.00038473       0.03370747
Pt      -0.00000105      -0.00000077      26.91409245        1       0.00000530       0.00000503       0.00270044
Pt       2.80559040       0.00122321      26.91547244        1       0.01179981      -0.01362104       0.00440961
Pt       5.61673152       0.00185939      26.91565932        1      -0.01401956      -0.01574302       0.00387588
Pt       1.40406667       2.42817957      26.91565142        1      -0.00661757       0.02004921       0.00386767
Pt       4.21081862       2.43111808      26.90821447        1       0.00000196       0.00001476       0.03769856
Pt       7.01778309       2.42909528      26.91546161        1       0.00593549       0.01701289       0.00440158
Pt       2.80908648       4.86304407      26.91545750        1      -0.01771632      -0.00344581       0.00444174
Pt       5.61166748       4.86330667      26.91563696        1       0.02061841      -0.00425476       0.00392387
Pt       8.42164594       4.86223481      26.91397451        1      -0.00001369      -0.00000960       0.00218485
C        0.00000064       0.00000051      32.11152686        0       0.00000379      -0.00000180      -0.01812446
O        0.00000032      -0.00000010      33.29286408        0       0.00000045      -0.00000032      -0.01047334
O        0.00000070       0.00000125      30.93091750        0       0.00000059      -0.00000093       0.02381105
