39
Lattice="8.421641763931781 0.0 0.0 4.2108208819658905 7.293355709136913 0.0 0.0 0.0 46.87624170604845" Properties=species:S:1:pos:R:3:tags:I:1:forces:R:3 charge=0 spin=0 energy=-209.36408614253003 free_energy=-209.36408614253003 stress="0.010442777536809444 -3.148358518334504e-10 5.3900870433665204e-09 -3.148358518334504e-10 0.010442792437970638 -4.383164053933797e-09 5.3900870433665204e-09 -4.383164053933797e-09 -0.00012750712630804628" pbc="T T T"
Pt      -0.00000001       0.00000022      19.95723425        4       0.00000270      -0.00000232       0.01478357
Pt       2.80721397      -0.00000009      19.95723437        4      -0.00006332       0.00031088       0.01545142
Pt       5.61442779      -0.00000006      19.95723442        4       0.00014859       0.00010426       0.01536442
Pt       1.40360720       2.43111836      19.95723428        4       0.00000967      -0.00017778       0.01537810
Pt       4.21082081       2.43111834      19.95723435        4       0.00000190       0.00000085       0.01514158
Pt       7.01803481       2.43111842      19.95723424        4      -0.00023695      -0.00020696       0.01545685
Pt       2.80721405       4.86223723      19.95723396        4       0.00029771      -0.00010565       0.01545598
Pt       5.61442805       4.86223729      19.95723414        4      -0.00016140       0.00007645       0.01537890
Pt       8.42164141       4.86223719      19.95723428        4       0.00000126      -0.00000020       0.01491274
Pt       1.40360726       0.81037260      22.29206791        3      -0.00028408       0.00015666      -0.04533567
Pt       4.21082130       0.81037249      22.29206785        3      -0.00027276      -0.00030155      -0.04547841
Pt       7.01803472       0.81037257      22.29206783        3       0.00000929      -0.00032053      -0.04532988
Pt       2.80721450       3.24149124      22.29206777        3      -0.00013643       0.00038991      -0.04548548
Pt       5.61442762       3.24149124      22.29206789        3       0.00040259      -0.00007899      -0.04548521
Pt       8.42164156       3.24149128      22.29206809        3       0.00017266      -0.00101596      -0.04311886
Pt       4.21082092       5.67260996      22.29206799        3       0.00027185       0.00016838      -0.04534357
Pt       7.01803487       5.67261037      22.29206782        3      -0.00097274       0.00036149      -0.04312176
Pt       9.82524820       5.67261064      22.29206809        3       0.00080813       0.00064416      -0.04312493
Pt      -0.00000052       1.62074570      24.58417379        2      -0.00011856       0.00429560       0.01865245
Pt       2.80721442       1.62074548      24.58417394        2      -0.00356919      -0.00241214       0.01493622
Pt       5.61442780       1.62074537      24.58417373        2       0.00386149      -0.00191216       0.01493290
Pt       1.40360637       4.05186438      24.58417386        2       0.00040108      -0.00011072       0.03365281
Pt       4.21082089       4.05186400      24.58417379        2      -0.00030379       0.00430605       0.01488550
Pt       7.01803504       4.05186405      24.58417405        2      -0.00027182      -0.00028612       0.03362048
Pt       2.80721281       6.48298343      24.58417366        2      -0.00367247      -0.00224861       0.01866403
Pt       5.61442797       6.48298326      24.58417386        2       0.00379158      -0.00201952       0.01865630
Pt       8.42164223       6.48298340      24.58417377        2      -0.00011627       0.00038039       0.03370737
Pt      -0.00000081      -0.00000064      26.91408729        1       0.00000330       0.00000499       0.00273682
Pt       2.80559045       0.00122417      26.91547059        1       0.01181067      -0.01363201       0.00440298
Pt       5.61673135       0.00186042      26.91565652        1      -0.01402480      -0.01575468       0.00387376
Pt       1.40406796       2.42817889      26.91564792        1      -0.00662274       0.02006703       0.00386610
Pt       4.21081857       2.43111777      26.90821484        1       0.00000201       0.00001630       0.03770045
Pt       7.01778190       2.42909534      26.91545850        1       0.00594473       0.01701519       0.00441950
Pt       2.80908770       4.86304346      26.91545499        1      -0.01773077      -0.00344474       0.00443769
Pt       5.61166609       4.86330631      26.91563481        1       0.02063450      -0.00426196       0.00391636
Pt       8.42164608       4.86223483      26.91397760        1      -0.00001372      -0.00000784       0.00217317
C        0.00000090       0.00000058      32.11180506        0      -0.00000488       0.00000376      -0.01775135
O        0.00000018       0.00000081      33.29314306        0       0.00000058      -0.00000052      -0.01043619
O        0.00000058       0.00000052      30.93119925        0       0.00000059      -0.00000124       0.02345286
