39
Lattice="8.421641763931781 0.0 0.0 4.2108208819658905 7.293355709136913 0.0 0.0 0.0 46.87624170604845" Properties=species:S:1:pos:R:3:tags:I:1:forces:R:3 charge=0 spin=0 energy=-75.6110734853645 free_energy=-75.6110734853645 stress="0.010268318466842175 6.2822196014167275e-06 1.841439996042027e-07 6.2822196014167275e-06 0.010264160111546516 2.1049224869784666e-06 1.841439996042027e-07 2.1049224869784666e-06 -0.001210200833156705" pbc="T T T"
Pt      -0.00000001       0.00000022      19.95723425        4       0.00707201       0.00143194       0.01321729
Pt       2.80721397      -0.00000009      19.95723437        4      -0.00310182      -0.00895258      -0.01632154
Pt       5.61442779      -0.00000006      19.95723442        4      -0.00226158      -0.00672567       0.01325785
Pt       1.40360720       2.43111836      19.95723428        4       0.01293582       0.00717546       0.02743025
Pt       4.21082081       2.43111834      19.95723435        4      -0.01265804       0.00749204       0.02756759
Pt       7.01803481       2.43111842      19.95723424        4      -0.00464455       0.00529873       0.01305484
Pt       2.80721405       4.86223723      19.95723396        4      -0.00024566      -0.01459636       0.02758313
Pt       5.61442805       4.86223729      19.95723414        4       0.00947071       0.00181089      -0.01642839
Pt       8.42164141       4.86223719      19.95723428        4      -0.00635618       0.00725635      -0.01651234
Pt       1.40360726       0.81037260      22.29206791        3      -0.03062922      -0.00437149      -0.15091303
Pt       4.21082130       0.81037249      22.29206785        3       0.02865330      -0.00070003      -0.18756588
Pt       7.01803472       0.81037257      22.29206783        3       0.00020754       0.00012320      -0.34098059
Pt       2.80721450       3.24149124      22.29206777        3       0.00025922       0.00045296      -0.15300441
Pt       5.61442762       3.24149124      22.29206789        3       0.01994331      -0.02487713      -0.15287176
Pt       8.42164156       3.24149128      22.29206809        3      -0.01453785      -0.02443334      -0.18885857
Pt       4.21082092       5.67260996      22.29206799        3      -0.01323625       0.02558950      -0.18855287
Pt       7.01803487       5.67261037      22.29206782        3       0.00026517       0.00021758      -0.16354761
Pt       9.82524820       5.67261064      22.29206809        3       0.01136414       0.02978382      -0.15151842
Pt      -0.00000052       1.62074570      24.58417379        2       0.07608748       0.03029907       0.33472088
Pt       2.80721442       1.62074548      24.58417394        2      -0.00279075       0.03107048       0.09094441
Pt       5.61442780       1.62074537      24.58417373        2      -0.06605437       0.04479877       0.32926488
Pt       1.40360637       4.05186438      24.58417386        2       0.02881994      -0.01544007       0.08845375
Pt       4.21082089       4.05186400      24.58417379        2      -0.03097735      -0.01598845       0.08239385
Pt       7.01803504       4.05186405      24.58417405        2       0.00963526      -0.00510222       0.11756448
Pt       2.80721281       6.48298343      24.58417366        2      -0.01049616      -0.08053257       0.33050239
Pt       5.61442797       6.48298326      24.58417386        2      -0.00999088      -0.00347220       0.12115072
Pt       8.42164223       6.48298340      24.58417377        2       0.00196801       0.00990527       0.11950219
Pt      -0.06991450      -0.64752821      33.17790525        1       0.04374136       0.00516775      -0.00315114
Pt       4.20232580       0.81608818      26.93345609        1      -0.00533971      -0.00300592       0.00256636
Pt       2.80690923      -1.61972878      26.94756192        1      -0.00304533      -0.00961971      -0.00727379
Pt       2.80611752       3.23949710      26.97237390        1      -0.00207668       0.00340785      -0.00167726
Pt       5.60707051       3.25791337      26.93118460        1       0.00506884       0.00197250       0.00540270
Pt       9.84178267       0.80484797      26.93459557        1      -0.00186501       0.00266192      -0.00786058
Pt       1.39133398       5.65830910      26.93384628        1      -0.00190892       0.00057526      -0.00115297
Pt       4.20698409       5.66127770      26.93321294        1       0.01154745       0.00067825      -0.00015793
Pt       8.43036158       3.24398593      26.93310695        1      -0.00108192       0.00581594       0.00062074
C       -1.72754243      -1.81137499      33.73140053        0       0.00046378       0.00192739      -0.00218312
O       -2.49783806      -0.99670557      33.89780491        0      -0.00086107       0.00232985       0.00001289
O       -0.16736161      -0.47017427      33.09882240        0      -0.04336137      -0.00942355       0.00532111
