39
Lattice="8.421641763931781 0.0 0.0 4.2108208819658905 7.293355709136913 0.0 0.0 0.0 46.87624170604845" Properties=species:S:1:pos:R:3:tags:I:1:forces:R:3 charge=0 spin=0 energy=-209.36511801814038 free_energy=-209.36511801814038 stress="0.010441460646688938 2.0769270747678092e-09 3.8061882534634606e-09 2.0769270747678092e-09 0.0104414913803339 -1.0459862975764622e-09 3.8061882534634606e-09 -1.0459862975764622e-09 -0.00016251849592663348" pbc="T T T"
Pt      -0.00000001       0.00000022      19.95723425        4       0.00000260      -0.00000245       0.01507301
Pt       2.80721397      -0.00000009      19.95723437        4      -0.00005324       0.00025312       0.01553183
Pt       5.61442779      -0.00000006      19.95723442        4       0.00019401      -0.00006524       0.01544447
Pt       1.40360720       2.43111836      19.95723428        4      -0.00015948      -0.00013290       0.01545500
Pt       4.21082081       2.43111834      19.95723435        4       0.00000162       0.00000206       0.01537858
Pt       7.01803481       2.43111842      19.95723424        4      -0.00019184      -0.00016878       0.01553528
Pt       2.80721405       4.86223723      19.95723396        4       0.00024172      -0.00008414       0.01553113
Pt       5.61442805       4.86223729      19.95723414        4      -0.00003692       0.00020123       0.01545418
Pt       8.42164141       4.86223719      19.95723428        4       0.00000138      -0.00000054       0.01496957
Pt       1.40360726       0.81037260      22.29206791        3      -0.00043348       0.00007121      -0.04624913
Pt       4.21082130       0.81037249      22.29206785        3      -0.00041446      -0.00000369      -0.04576413
Pt       7.01803472       0.81037257      22.29206783        3       0.00015652      -0.00040869      -0.04624752
Pt       2.80721450       3.24149124      22.29206777        3       0.00018848       0.00036951      -0.04577283
Pt       5.61442762       3.24149124      22.29206789        3       0.00022048      -0.00034682      -0.04577027
Pt       8.42164156       3.24149128      22.29206809        3       0.00021208      -0.00190587      -0.04120467
Pt       4.21082092       5.67260996      22.29206799        3       0.00027450       0.00034089      -0.04626700
Pt       7.01803487       5.67261037      22.29206782        3      -0.00176094       0.00076957      -0.04120915
Pt       9.82524820       5.67261064      22.29206809        3       0.00155488       0.00112691      -0.04121125
Pt      -0.00000052       1.62074570      24.58417379        2      -0.00015242       0.00589939       0.01280587
Pt       2.80721442       1.62074548      24.58417394        2       0.00120540       0.00045749       0.02747893
Pt       5.61442780       1.62074537      24.58417373        2      -0.00102732       0.00076460       0.02746969
Pt       1.40360637       4.05186438      24.58417386        2      -0.00002863       0.00017030       0.02198333
Pt       4.21082089       4.05186400      24.58417379        2      -0.00019532      -0.00128386       0.02735842
Pt       7.01803504       4.05186405      24.58417405        2       0.00017607      -0.00006166       0.02195815
Pt       2.80721281       6.48298343      24.58417366        2      -0.00504259      -0.00308645       0.01283696
Pt       5.61442797       6.48298326      24.58417386        2       0.00521789      -0.00276926       0.01282636
Pt       8.42164223       6.48298340      24.58417377        2      -0.00014862      -0.00012629       0.02209711
Pt       0.00000020       0.00000121      26.91089753        1      -0.00000458      -0.00001416       0.00628915
Pt       2.80746298      -0.00159278      26.91476675        1      -0.00145212       0.01318909       0.00844389
Pt       5.61473332      -0.00099864      26.91487516        1      -0.00033979       0.01124673       0.00818115
Pt       1.40259729       2.43133302      26.91485776        1       0.00991706      -0.00535907       0.00824256
Pt       4.21081946       2.43113028      26.91439268        1       0.00001110      -0.00010782       0.00494767
Pt       7.01928872       2.43211029      26.91473916        1      -0.01068755      -0.00789181       0.00854637
Pt       2.80571962       4.86282377      26.91473599        1       0.01208633      -0.00529102       0.00856132
Pt       5.61512700       4.86300597      26.91483569        1      -0.00953284      -0.00588021       0.00831614
Pt       8.42164211       4.86220975      26.91391909        1       0.00000260       0.00012947       0.01215315
C        0.00000076       0.00002974      31.98221626        0       0.00000137       0.00005726      -0.03239898
O       -0.00000150      -0.00002912      33.16310015        0      -0.00000193      -0.00003024       0.02263420
O        0.00000375       0.00009815      30.80170227        0      -0.00000190      -0.00002792       0.01059149
