39
Lattice="8.421641763931781 0.0 0.0 4.2108208819658905 7.293355709136913 0.0 0.0 0.0 46.87624170604845" Properties=species:S:1:pos:R:3:tags:I:1:forces:R:3 charge=0 spin=0 energy=-209.36408137415845 free_energy=-209.36408137415845 stress="0.010442626662552357 1.4425374228466126e-09 -1.3147452904149759e-08 1.4425374228466126e-09 0.010442648082971573 -8.747633728489745e-10 -1.3147452904149759e-08 -8.747633728489745e-10 -0.00012791100016329437" pbc="T T T"
Pt      -0.00000001       0.00000022      19.95723425        4       0.00000260      -0.00000218       0.01478285
Pt       2.80721397      -0.00000009      19.95723437        4      -0.00006299       0.00031084       0.01545053
Pt       5.61442779      -0.00000006      19.95723442        4       0.00014829       0.00010420       0.01536397
Pt       1.40360720       2.43111836      19.95723428        4       0.00000965      -0.00017736       0.01537720
Pt       4.21082081       2.43111834      19.95723435        4       0.00000187       0.00000094       0.01514116
Pt       7.01803481       2.43111842      19.95723424        4      -0.00023695      -0.00020636       0.01545615
Pt       2.80721405       4.86223723      19.95723396        4       0.00029739      -0.00010575       0.01545524
Pt       5.61442805       4.86223729      19.95723414        4      -0.00016117       0.00007595       0.01537797
Pt       8.42164141       4.86223719      19.95723428        4       0.00000116      -0.00000020       0.01491222
Pt       1.40360726       0.81037260      22.29206791        3      -0.00028418       0.00015582      -0.04533651
Pt       4.21082130       0.81037249      22.29206785        3      -0.00027267      -0.00030098      -0.04547781
Pt       7.01803472       0.81037257      22.29206783        3       0.00000924      -0.00032094      -0.04533084
Pt       2.80721450       3.24149124      22.29206777        3      -0.00013534       0.00038922      -0.04548435
Pt       5.61442762       3.24149124      22.29206789        3       0.00040176      -0.00007915      -0.04548439
Pt       8.42164156       3.24149128      22.29206809        3       0.00017243      -0.00101471      -0.04311972
Pt       4.21082092       5.67260996      22.29206799        3       0.00027192       0.00016835      -0.04534540
Pt       7.01803487       5.67261037      22.29206782        3      -0.00097168       0.00036093      -0.04312315
Pt       9.82524820       5.67261064      22.29206809        3       0.00080709       0.00064304      -0.04312498
Pt      -0.00000052       1.62074570      24.58417379        2      -0.00011626       0.00430699       0.01861404
Pt       2.80721442       1.62074548      24.58417394        2      -0.00356038      -0.00240466       0.01491276
Pt       5.61442780       1.62074537      24.58417373        2       0.00384881      -0.00190643       0.01490689
Pt       1.40360637       4.05186438      24.58417386        2       0.00038430      -0.00010240       0.03365871
Pt       4.21082089       4.05186400      24.58417379        2      -0.00030412       0.00429297       0.01485970
Pt       7.01803504       4.05186405      24.58417405        2      -0.00025445      -0.00027497       0.03362189
Pt       2.80721281       6.48298343      24.58417366        2      -0.00368083      -0.00225488       0.01862587
Pt       5.61442797       6.48298326      24.58417386        2       0.00380241      -0.00202427       0.01861948
Pt       8.42164223       6.48298340      24.58417377        2      -0.00011635       0.00036064       0.03371229
Pt      -0.00000140      -0.00000050      26.91407247        1       0.00000555       0.00000335       0.00283682
Pt       2.80558919       0.00122750      26.91546201        1       0.01184343      -0.01366189       0.00440887
Pt       5.61673273       0.00186359      26.91564869        1      -0.01406763      -0.01578500       0.00386933
Pt       1.40407005       2.42817605      26.91564100        1      -0.00663099       0.02010756       0.00387155
Pt       4.21081847       2.43111787      26.90821683        1       0.00000254       0.00001527       0.03769324
Pt       7.01777989       2.42909221      26.91544980        1       0.00594992       0.01706456       0.00442618
Pt       2.80909130       4.86304295      26.91544712        1      -0.01777404      -0.00346095       0.00444399
Pt       5.61166292       4.86330533      26.91562620        1       0.02067553      -0.00426914       0.00392717
Pt       8.42164626       4.86223473      26.91398750        1      -0.00001245      -0.00000752       0.00211009
C        0.00000061       0.00000075      32.11249627        0       0.00001091      -0.00000296      -0.01765542
O       -0.00000027      -0.00000002      33.29383493        0      -0.00000209       0.00000136      -0.01040345
O        0.00000152       0.00000161      30.93188982        0      -0.00000203       0.00000076       0.02344989
