39
Lattice="8.421641763931781 0.0 0.0 4.2108208819658905 7.293355709136913 0.0 0.0 0.0 46.87624170604845" Properties=species:S:1:pos:R:3:tags:I:1:forces:R:3 charge=0 spin=0 energy=-209.3640794668098 free_energy=-209.3640794668098 stress="0.010442659258842468 -1.1230986973753687e-10 -1.1412507383568027e-08 -1.1230986973753687e-10 0.010442673228681087 -3.1701374858528197e-09 -1.1412507383568027e-08 -3.1701374858528197e-09 -0.00012782620615325868" pbc="T T T"
Pt      -0.00000001       0.00000022      19.95723425        4       0.00000256      -0.00000210       0.01478287
Pt       2.80721397      -0.00000009      19.95723437        4      -0.00006296       0.00031068       0.01545051
Pt       5.61442779      -0.00000006      19.95723442        4       0.00014843       0.00010417       0.01536353
Pt       1.40360720       2.43111836      19.95723428        4       0.00000966      -0.00017751       0.01537723
Pt       4.21082081       2.43111834      19.95723435        4       0.00000184       0.00000073       0.01514107
Pt       7.01803481       2.43111842      19.95723424        4      -0.00023666      -0.00020650       0.01545602
Pt       2.80721405       4.86223723      19.95723396        4       0.00029723      -0.00010575       0.01545549
Pt       5.61442805       4.86223729      19.95723414        4      -0.00016108       0.00007606       0.01537807
Pt       8.42164141       4.86223719      19.95723428        4       0.00000119      -0.00000022       0.01491230
Pt       1.40360726       0.81037260      22.29206791        3      -0.00028440       0.00015674      -0.04533492
Pt       4.21082130       0.81037249      22.29206785        3      -0.00027289      -0.00030160      -0.04547892
Pt       7.01803472       0.81037257      22.29206783        3       0.00000899      -0.00032062      -0.04532980
Pt       2.80721450       3.24149124      22.29206777        3      -0.00013641       0.00038953      -0.04548371
Pt       5.61442762       3.24149124      22.29206789        3       0.00040220      -0.00007871      -0.04548388
Pt       8.42164156       3.24149128      22.29206809        3       0.00017249      -0.00101362      -0.04312247
Pt       4.21082092       5.67260996      22.29206799        3       0.00027172       0.00016847      -0.04534353
Pt       7.01803487       5.67261037      22.29206782        3      -0.00097086       0.00036038      -0.04312530
Pt       9.82524820       5.67261064      22.29206809        3       0.00080555       0.00064323      -0.04312766
Pt      -0.00000052       1.62074570      24.58417379        2      -0.00011720       0.00429251       0.01864754
Pt       2.80721442       1.62074548      24.58417394        2      -0.00356752      -0.00240970       0.01490887
Pt       5.61442780       1.62074537      24.58417373        2       0.00385870      -0.00191044       0.01490533
Pt       1.40360637       4.05186438      24.58417386        2       0.00038891      -0.00010628       0.03366102
Pt       4.21082089       4.05186400      24.58417379        2      -0.00030390       0.00430259       0.01485650
Pt       7.01803504       4.05186405      24.58417405        2      -0.00025959      -0.00027896       0.03362685
Pt       2.80721281       6.48298343      24.58417366        2      -0.00366768      -0.00224722       0.01865605
Pt       5.61442797       6.48298326      24.58417386        2       0.00378866      -0.00201673       0.01865012
Pt       8.42164223       6.48298340      24.58417377        2      -0.00011585       0.00036684       0.03371371
Pt      -0.00000137      -0.00000087      26.91408727        1       0.00000502       0.00000482       0.00276891
Pt       2.80559004       0.00122836      26.91546420        1       0.01182691      -0.01367181       0.00440429
Pt       5.61673261       0.00186431      26.91565147        1      -0.01405477      -0.01579219       0.00385970
Pt       1.40407154       2.42817579      26.91564322        1      -0.00664513       0.02010854       0.00384946
Pt       4.21081883       2.43111751      26.90821134        1       0.00000251       0.00001609       0.03772277
Pt       7.01777898       2.42909284      26.91545203        1       0.00596377       0.01705723       0.00440355
Pt       2.80909134       4.86304187      26.91544848        1      -0.01777586      -0.00344904       0.00442639
Pt       5.61166168       4.86330440      26.91562817        1       0.02068339      -0.00426239       0.00390423
Pt       8.42164607       4.86223473      26.91398463        1      -0.00001305      -0.00000815       0.00212540
C        0.00000077       0.00000128      32.11261059        0       0.00000090      -0.00000293      -0.01778884
O        0.00000042      -0.00000025      33.29394812        0       0.00000248       0.00000235      -0.01041185
O        0.00000054       0.00000240      30.93200337        0       0.00000250       0.00000175       0.02362351
