39
Lattice="8.421641763931781 0.0 0.0 4.2108208819658905 7.293355709136913 0.0 0.0 0.0 46.87624170604845" Properties=species:S:1:pos:R:3:tags:I:1:forces:R:3 charge=0 spin=0 energy=-209.36408137415845 free_energy=-209.36408137415845 stress="0.010442756116390228 -1.9244572602161725e-09 -1.045056818860246e-09 -1.9244572602161725e-09 0.010442770086228848 -4.461282898660102e-09 -1.045056818860246e-09 -4.461282898660102e-09 -0.00012761377729475498" pbc="T T T"
Pt      -0.00000001       0.00000022      19.95723425        4       0.00000269      -0.00000212       0.01478344
Pt       2.80721397      -0.00000009      19.95723437        4      -0.00006331       0.00031074       0.01545125
Pt       5.61442779      -0.00000006      19.95723442        4       0.00014872       0.00010418       0.01536421
Pt       1.40360720       2.43111836      19.95723428        4       0.00000973      -0.00017752       0.01537778
Pt       4.21082081       2.43111834      19.95723435        4       0.00000167       0.00000089       0.01514143
Pt       7.01803481       2.43111842      19.95723424        4      -0.00023692      -0.00020676       0.01545655
Pt       2.80721405       4.86223723      19.95723396        4       0.00029749      -0.00010562       0.01545589
Pt       5.61442805       4.86223729      19.95723414        4      -0.00016134       0.00007601       0.01537875
Pt       8.42164141       4.86223719      19.95723428        4       0.00000132      -0.00000010       0.01491249
Pt       1.40360726       0.81037260      22.29206791        3      -0.00028415       0.00015605      -0.04533482
Pt       4.21082130       0.81037249      22.29206785        3      -0.00027268      -0.00030173      -0.04547930
Pt       7.01803472       0.81037257      22.29206783        3       0.00000940      -0.00032051      -0.04532986
Pt       2.80721450       3.24149124      22.29206777        3      -0.00013602       0.00038934      -0.04548538
Pt       5.61442762       3.24149124      22.29206789        3       0.00040290      -0.00007929      -0.04548484
Pt       8.42164156       3.24149128      22.29206809        3       0.00017200      -0.00101539      -0.04311929
Pt       4.21082092       5.67260996      22.29206799        3       0.00027187       0.00016851      -0.04534322
Pt       7.01803487       5.67261037      22.29206782        3      -0.00097195       0.00036123      -0.04312222
Pt       9.82524820       5.67261064      22.29206809        3       0.00080758       0.00064348      -0.04312499
Pt      -0.00000052       1.62074570      24.58417379        2      -0.00011701       0.00429510       0.01865103
Pt       2.80721442       1.62074548      24.58417394        2      -0.00357072      -0.00241066       0.01492952
Pt       5.61442780       1.62074537      24.58417373        2       0.00386131      -0.00191147       0.01492469
Pt       1.40360637       4.05186438      24.58417386        2       0.00039941      -0.00010941       0.03365893
Pt       4.21082089       4.05186400      24.58417379        2      -0.00030570       0.00430715       0.01487821
Pt       7.01803504       4.05186405      24.58417405        2      -0.00026795      -0.00028395       0.03362113
Pt       2.80721281       6.48298343      24.58417366        2      -0.00367066      -0.00225023       0.01866368
Pt       5.61442797       6.48298326      24.58417386        2       0.00379056      -0.00201894       0.01865460
Pt       8.42164223       6.48298340      24.58417377        2      -0.00011662       0.00037626       0.03370690
Pt      -0.00000120      -0.00000058      26.91408735        1       0.00000399       0.00000274       0.00274548
Pt       2.80559079       0.00122495      26.91546834        1       0.01180882      -0.01363981       0.00440866
Pt       5.61673134       0.00186117      26.91565525        1      -0.01402362      -0.01576243       0.00388071
Pt       1.40406838       2.42817800      26.91564769        1      -0.00662772       0.02007208       0.00386634
Pt       4.21081866       2.43111790      26.90821335        1       0.00000151       0.00001584       0.03770984
Pt       7.01778153       2.42909449      26.91545698        1       0.00594678       0.01702484       0.00441924
Pt       2.80908840       4.86304298      26.91545432        1      -0.01774111      -0.00344632       0.00442874
Pt       5.61166535       4.86330577      26.91563261        1       0.02064189      -0.00425364       0.00392397
Pt       8.42164586       4.86223494      26.91397796        1      -0.00001285      -0.00001071       0.00216053
C        0.00000090       0.00000103      32.11199230        0      -0.00000280       0.00000285      -0.01827128
O        0.00000022      -0.00000026      33.29332917        0       0.00000178      -0.00000009      -0.01007826
O        0.00000100       0.00000253      30.93138507        0       0.00000176      -0.00000076       0.02361944
