39
Lattice="8.421641763931781 0.0 0.0 4.2108208819658905 7.293355709136913 0.0 0.0 0.0 46.87624170604845" Properties=species:S:1:pos:R:3:tags:I:1:forces:R:3 charge=0 spin=0 energy=-209.3650436315437 free_energy=-209.3650436315437 stress="0.010491682216525078 -2.250224673261414e-09 -1.4447573137843506e-09 -2.250224673261414e-09 0.010491692461073399 5.064633157303433e-10 -1.4447573137843506e-09 5.064633157303433e-10 -4.6676508645759895e-05" pbc="T T T"
Pt      -0.00000001       0.00000022      19.95723425        4       0.00000274      -0.00000154       0.01519682
Pt       2.80721397      -0.00000009      19.95723437        4       0.00004724       0.00031206       0.01563391
Pt       5.61442779      -0.00000006      19.95723442        4       0.00005718      -0.00004961       0.01553446
Pt       1.40360720       2.43111836      19.95723428        4      -0.00007680      -0.00002224       0.01554319
Pt       4.21082081       2.43111834      19.95723435        4       0.00000177       0.00000065       0.01529642
Pt       7.01803481       2.43111842      19.95723424        4      -0.00029413      -0.00011102       0.01563520
Pt       2.80721405       4.86223723      19.95723396        4       0.00024433      -0.00020136       0.01563352
Pt       5.61442805       4.86223729      19.95723414        4       0.00001677       0.00007380       0.01554408
Pt       8.42164141       4.86223719      19.95723428        4       0.00000121      -0.00000102       0.01502738
Pt       1.40360726       0.81037260      22.29206791        3      -0.00067790      -0.00010423      -0.04703251
Pt       4.21082130       0.81037249      22.29206785        3      -0.00036170      -0.00026719      -0.04507961
Pt       7.01803472       0.81037257      22.29206783        3       0.00042929      -0.00053077      -0.04702846
Pt       2.80721450       3.24149124      22.29206777        3      -0.00006268       0.00044748      -0.04508762
Pt       5.61442762       3.24149124      22.29206789        3       0.00041738      -0.00017094      -0.04508298
Pt       8.42164156       3.24149128      22.29206809        3       0.00019949      -0.00201254      -0.04156598
Pt       4.21082092       5.67260996      22.29206799        3       0.00024648       0.00064248      -0.04704117
Pt       7.01803487       5.67261037      22.29206782        3      -0.00184406       0.00083176      -0.04156851
Pt       9.82524820       5.67261064      22.29206809        3       0.00165225       0.00116455      -0.04156996
Pt      -0.00000052       1.62074570      24.58417379        2      -0.00021915       0.00555449       0.03313379
Pt       2.80721442       1.62074548      24.58417394        2       0.00067223       0.00026818       0.03701668
Pt       5.61442780       1.62074537      24.58417373        2      -0.00056266       0.00045183       0.03701328
Pt       1.40360637       4.05186438      24.58417386        2       0.00320461      -0.00110355       0.02935930
Pt       4.21082089       4.05186400      24.58417379        2      -0.00011642      -0.00070901       0.03697246
Pt       7.01803504       4.05186405      24.58417405        2      -0.00255799      -0.00222756       0.02936631
Pt       2.80721281       6.48298343      24.58417366        2      -0.00469109      -0.00298598       0.03313358
Pt       5.61442797       6.48298326      24.58417386        2       0.00493050      -0.00257115       0.03312983
Pt       8.42164223       6.48298340      24.58417377        2      -0.00065737       0.00331946       0.02940471
Pt       0.00000094      -0.00000046      26.91473652        1      -0.00000561      -0.00000479      -0.01704124
Pt       2.80875610       0.00008270      26.91798611        1      -0.01487001       0.00157706      -0.00675872
Pt       5.61307424       0.00026411      26.91787641        1       0.01449022       0.00127346      -0.00598463
Pt       1.40451479       2.43215624      26.91787523        1      -0.00612555      -0.01322809      -0.00600921
Pt       4.21082297       2.43112031      26.91734168        1       0.00000112      -0.00000541      -0.00258852
Pt       7.01719956       2.43240504      26.91798660        1       0.00605184      -0.01367447      -0.00679886
Pt       2.80650701       4.86086342      26.91798224        1       0.00881460       0.01212929      -0.00679021
Pt       5.61487322       4.86093794      26.91787004        1      -0.00836059       0.01193601      -0.00601277
Pt       8.42163958       4.86223679      26.91255152        1       0.00000007       0.00000152       0.01739346
C        0.00000099      -0.00000177      31.96673907        0       0.00000184      -0.00000534      -0.00024151
O       -0.00000077       0.00000133      33.14816056        0       0.00000000       0.00000153      -0.03036132
O        0.00000266      -0.00000543      30.78600910        0       0.00000022       0.00000214       0.03467522
