39
Lattice="8.421641763931781 0.0 0.0 4.2108208819658905 7.293355709136913 0.0 0.0 0.0 46.87624170604845" Properties=species:S:1:pos:R:3:tags:I:1:forces:R:3 charge=0 spin=0 energy=-209.36511801814038 free_energy=-209.36511801814038 stress="0.010441459715366364 5.039955564001275e-09 1.0238417891272888e-09 5.039955564001275e-09 0.010441501624882221 -1.2041837749166007e-08 1.0238417891272888e-09 -1.2041837749166007e-08 -0.00016251468332484365" pbc="T T T"
Pt      -0.00000001       0.00000022      19.95723425        4       0.00000274      -0.00000238       0.01507322
Pt       2.80721397      -0.00000009      19.95723437        4      -0.00005335       0.00025333       0.01553198
Pt       5.61442779      -0.00000006      19.95723442        4       0.00019391      -0.00006507       0.01544447
Pt       1.40360720       2.43111836      19.95723428        4      -0.00015934      -0.00013309       0.01545494
Pt       4.21082081       2.43111834      19.95723435        4       0.00000169       0.00000219       0.01537852
Pt       7.01803481       2.43111842      19.95723424        4      -0.00019197      -0.00016878       0.01553562
Pt       2.80721405       4.86223723      19.95723396        4       0.00024194      -0.00008426       0.01553119
Pt       5.61442805       4.86223729      19.95723414        4      -0.00003721       0.00020102       0.01545433
Pt       8.42164141       4.86223719      19.95723428        4       0.00000140      -0.00000042       0.01496976
Pt       1.40360726       0.81037260      22.29206791        3      -0.00043391       0.00007129      -0.04624873
Pt       4.21082130       0.81037249      22.29206785        3      -0.00041425      -0.00000377      -0.04576340
Pt       7.01803472       0.81037257      22.29206783        3       0.00015660      -0.00040837      -0.04624704
Pt       2.80721450       3.24149124      22.29206777        3       0.00018787       0.00036968      -0.04577295
Pt       5.61442762       3.24149124      22.29206789        3       0.00022081      -0.00034640      -0.04576946
Pt       8.42164156       3.24149128      22.29206809        3       0.00021189      -0.00190617      -0.04120492
Pt       4.21082092       5.67260996      22.29206799        3       0.00027493       0.00034114      -0.04626608
Pt       7.01803487       5.67261037      22.29206782        3      -0.00176115       0.00076987      -0.04120890
Pt       9.82524820       5.67261064      22.29206809        3       0.00155544       0.00112667      -0.04121131
Pt      -0.00000052       1.62074570      24.58417379        2      -0.00015198       0.00589812       0.01280710
Pt       2.80721442       1.62074548      24.58417394        2       0.00120417       0.00045454       0.02747631
Pt       5.61442780       1.62074537      24.58417373        2      -0.00102667       0.00076412       0.02746288
Pt       1.40360637       4.05186438      24.58417386        2      -0.00002764       0.00016956       0.02198328
Pt       4.21082089       4.05186400      24.58417379        2      -0.00019366      -0.00128206       0.02735601
Pt       7.01803504       4.05186405      24.58417405        2       0.00017212      -0.00006197       0.02196010
Pt       2.80721281       6.48298343      24.58417366        2      -0.00504178      -0.00308602       0.01283775
Pt       5.61442797       6.48298326      24.58417386        2       0.00521840      -0.00276995       0.01283211
Pt       8.42164223       6.48298340      24.58417377        2      -0.00015008      -0.00012392       0.02210039
Pt       0.00000038       0.00000099      26.91090096        1      -0.00000394      -0.00001406       0.00627575
Pt       2.80746208      -0.00159191      26.91476775        1      -0.00144521       0.01317919       0.00843168
Pt       5.61473377      -0.00099748      26.91487574        1      -0.00035099       0.01123395       0.00817703
Pt       1.40259773       2.43133165      26.91485841        1       0.00990761      -0.00535316       0.00824720
Pt       4.21081908       2.43113004      26.91439024        1       0.00000957      -0.00010817       0.00495887
Pt       7.01928749       2.43210883      26.91474038        1      -0.01067742      -0.00788524       0.00855292
Pt       2.80572066       4.86282372      26.91473640        1       0.01207580      -0.00529107       0.00855814
Pt       5.61512539       4.86300566      26.91483623        1      -0.00952052      -0.00587724       0.00830854
Pt       8.42164175       4.86220934      26.91391768        1       0.00000566       0.00013150       0.01215843
C        0.00000227       0.00003033      31.98209849        0      -0.00000078       0.00006062      -0.03238846
O       -0.00000097      -0.00002981      33.16298178        0      -0.00000032      -0.00002893       0.02262419
O        0.00000579       0.00009993      30.80158453        0      -0.00000025      -0.00002624       0.01059836
