39
Lattice="8.421641763931781 0.0 0.0 4.2108208819658905 7.293355709136913 0.0 0.0 0.0 46.87624170604845" Properties=species:S:1:pos:R:3:tags:I:1:forces:R:3 charge=0 spin=0 energy=-209.36408232783276 free_energy=-209.36408232783276 stress="0.010442748665809631 3.929694791793281e-09 1.5168446054758533e-08 3.929694791793281e-09 0.010442751459777355 -1.0238868419776281e-08 1.5168446054758533e-08 -1.0238868419776281e-08 -0.0001275165705010295" pbc="T T T"
Pt      -0.00000001       0.00000022      19.95723425        4       0.00000254      -0.00000216       0.01478331
Pt       2.80721397      -0.00000009      19.95723437        4      -0.00006335       0.00031087       0.01545093
Pt       5.61442779      -0.00000006      19.95723442        4       0.00014857       0.00010429       0.01536402
Pt       1.40360720       2.43111836      19.95723428        4       0.00000980      -0.00017773       0.01537735
Pt       4.21082081       2.43111834      19.95723435        4       0.00000183       0.00000079       0.01514137
Pt       7.01803481       2.43111842      19.95723424        4      -0.00023680      -0.00020682       0.01545653
Pt       2.80721405       4.86223723      19.95723396        4       0.00029746      -0.00010563       0.01545585
Pt       5.61442805       4.86223729      19.95723414        4      -0.00016124       0.00007615       0.01537877
Pt       8.42164141       4.86223719      19.95723428        4       0.00000126      -0.00000030       0.01491243
Pt       1.40360726       0.81037260      22.29206791        3      -0.00028397       0.00015666      -0.04533537
Pt       4.21082130       0.81037249      22.29206785        3      -0.00027304      -0.00030189      -0.04547880
Pt       7.01803472       0.81037257      22.29206783        3       0.00000941      -0.00032023      -0.04533013
Pt       2.80721450       3.24149124      22.29206777        3      -0.00013621       0.00038939      -0.04548528
Pt       5.61442762       3.24149124      22.29206789        3       0.00040264      -0.00007869      -0.04548364
Pt       8.42164156       3.24149128      22.29206809        3       0.00017284      -0.00101467      -0.04312044
Pt       4.21082092       5.67260996      22.29206799        3       0.00027161       0.00016845      -0.04534262
Pt       7.01803487       5.67261037      22.29206782        3      -0.00097110       0.00036143      -0.04312247
Pt       9.82524820       5.67261064      22.29206809        3       0.00080709       0.00064335      -0.04312611
Pt      -0.00000052       1.62074570      24.58417379        2      -0.00011742       0.00429567       0.01865074
Pt       2.80721442       1.62074548      24.58417394        2      -0.00356930      -0.00241092       0.01492838
Pt       5.61442780       1.62074537      24.58417373        2       0.00386005      -0.00190965       0.01491966
Pt       1.40360637       4.05186438      24.58417386        2       0.00039627      -0.00010989       0.03366181
Pt       4.21082089       4.05186400      24.58417379        2      -0.00030389       0.00430494       0.01487350
Pt       7.01803504       4.05186405      24.58417405        2      -0.00026712      -0.00028349       0.03362872
Pt       2.80721281       6.48298343      24.58417366        2      -0.00366960      -0.00224951       0.01865710
Pt       5.61442797       6.48298326      24.58417386        2       0.00379088      -0.00201875       0.01865422
Pt       8.42164223       6.48298340      24.58417377        2      -0.00011821       0.00037383       0.03371143
Pt      -0.00000102      -0.00000070      26.91408744        1       0.00000536       0.00000458       0.00275279
Pt       2.80558955       0.00122580      26.91546738        1       0.01182105      -0.01364814       0.00440296
Pt       5.61673263       0.00186226      26.91565415        1      -0.01403470      -0.01577237       0.00389147
Pt       1.40406897       2.42817676      26.91564678        1      -0.00663061       0.02008549       0.00386029
Pt       4.21081875       2.43111791      26.90821302        1       0.00000040       0.00001363       0.03771024
Pt       7.01778084       2.42909297      26.91545592        1       0.00595214       0.01704065       0.00441466
Pt       2.80908995       4.86304330      26.91545201        1      -0.01775265      -0.00345053       0.00443743
Pt       5.61166381       4.86330599      26.91563236        1       0.02066162      -0.00426771       0.00390512
Pt       8.42164626       4.86223433      26.91398086        1      -0.00001548      -0.00000718       0.00214762
C       -0.00000006       0.00000118      32.11212666        0       0.00000288       0.00001007      -0.01724794
O        0.00000116      -0.00000109      33.29346667        0      -0.00000549      -0.00000165      -0.01076324
O       -0.00000017       0.00000428      30.93152150        0      -0.00000558      -0.00000252       0.02330748
