39
Lattice="8.421641763931781 0.0 0.0 4.2108208819658905 7.293355709136913 0.0 0.0 0.0 46.87624170604845" Properties=species:S:1:pos:R:3:tags:I:1:forces:R:3 charge=0 spin=0 energy=-209.36504839991528 free_energy=-209.36504839991528 stress="0.010491692461073399 -2.663015363779664e-09 1.6150593085129117e-09 -2.663015363779664e-09 0.010491693392395973 -7.0778480854016834e-09 1.6150593085129117e-09 -7.0778480854016834e-09 -4.675840318668634e-05" pbc="T T T"
Pt      -0.00000001       0.00000022      19.95723425        4       0.00000257      -0.00000159       0.01519693
Pt       2.80721397      -0.00000009      19.95723437        4       0.00004748       0.00031214       0.01563397
Pt       5.61442779      -0.00000006      19.95723442        4       0.00005699      -0.00004969       0.01553446
Pt       1.40360720       2.43111836      19.95723428        4      -0.00007684      -0.00002231       0.01554300
Pt       4.21082081       2.43111834      19.95723435        4       0.00000172       0.00000080       0.01529612
Pt       7.01803481       2.43111842      19.95723424        4      -0.00029396      -0.00011089       0.01563497
Pt       2.80721405       4.86223723      19.95723396        4       0.00024417      -0.00020133       0.01563344
Pt       5.61442805       4.86223729      19.95723414        4       0.00001689       0.00007355       0.01554393
Pt       8.42164141       4.86223719      19.95723428        4       0.00000137      -0.00000105       0.01502731
Pt       1.40360726       0.81037260      22.29206791        3      -0.00067773      -0.00010433      -0.04703196
Pt       4.21082130       0.81037249      22.29206785        3      -0.00036143      -0.00026796      -0.04507878
Pt       7.01803472       0.81037257      22.29206783        3       0.00042913      -0.00053113      -0.04702805
Pt       2.80721450       3.24149124      22.29206777        3      -0.00006300       0.00044760      -0.04508874
Pt       5.61442762       3.24149124      22.29206789        3       0.00041751      -0.00017034      -0.04508338
Pt       8.42164156       3.24149128      22.29206809        3       0.00019967      -0.00201199      -0.04156750
Pt       4.21082092       5.67260996      22.29206799        3       0.00024643       0.00064243      -0.04704099
Pt       7.01803487       5.67261037      22.29206782        3      -0.00184379       0.00083175      -0.04156976
Pt       9.82524820       5.67261064      22.29206809        3       0.00165165       0.00116441      -0.04157099
Pt      -0.00000052       1.62074570      24.58417379        2      -0.00021936       0.00554581       0.03315063
Pt       2.80721442       1.62074548      24.58417394        2       0.00066974       0.00026460       0.03701520
Pt       5.61442780       1.62074537      24.58417373        2      -0.00055987       0.00045023       0.03700946
Pt       1.40360637       4.05186438      24.58417386        2       0.00320605      -0.00110404       0.02935526
Pt       4.21082089       4.05186400      24.58417379        2      -0.00011634      -0.00070558       0.03696777
Pt       7.01803504       4.05186405      24.58417405        2      -0.00255924      -0.00222818       0.02936183
Pt       2.80721281       6.48298343      24.58417366        2      -0.00468350      -0.00298116       0.03315059
Pt       5.61442797       6.48298326      24.58417386        2       0.00492436      -0.00256583       0.03314893
Pt       8.42164223       6.48298340      24.58417377        2      -0.00065877       0.00332133       0.02940260
Pt       0.00000105      -0.00000047      26.91474341        1      -0.00000708      -0.00000507      -0.01707709
Pt       2.80875787       0.00008308      26.91798701        1      -0.01488755       0.00157246      -0.00676873
Pt       5.61307248       0.00026463      26.91787655        1       0.01450750       0.00126749      -0.00598692
Pt       1.40451619       2.43215739      26.91787565        1      -0.00613832      -0.01324010      -0.00601179
Pt       4.21082300       2.43112030      26.91733897        1       0.00000064      -0.00000654      -0.00257718
Pt       7.01719828       2.43240617      26.91798644        1       0.00606739      -0.01369086      -0.00679563
Pt       2.80650693       4.86086162      26.91798239        1       0.00881741       0.01214521      -0.00679455
Pt       5.61487368       4.86093594      26.91787045        1      -0.00836311       0.01195300      -0.00601833
Pt       8.42163975       4.86223663      26.91255060        1       0.00000058       0.00000451       0.01740265
C        0.00000100      -0.00000136      31.96682737        0      -0.00000510      -0.00000200      -0.00005513
O        0.00000002       0.00000173      33.14824866        0       0.00000273       0.00000191      -0.03034691
O        0.00000168      -0.00000478      30.78609769        0       0.00000279       0.00000276       0.03448319
