39
Lattice="8.421641763931781 0.0 0.0 4.2108208819658905 7.293355709136913 0.0 0.0 0.0 46.87624170604845" Properties=species:S:1:pos:R:3:tags:I:1:forces:R:3 charge=0 spin=0 energy=-209.36504744624096 free_energy=-209.36504744624096 stress="0.010491680353879929 -2.214868954908411e-09 2.607237981067101e-09 -2.214868954908411e-09 0.010491697117686272 2.8125894946384733e-09 2.607237981067101e-09 2.8125894946384733e-09 -4.661346974899061e-05" pbc="T T T"
Pt      -0.00000001       0.00000022      19.95723425        4       0.00000274      -0.00000165       0.01519686
Pt       2.80721397      -0.00000009      19.95723437        4       0.00004738       0.00031200       0.01563378
Pt       5.61442779      -0.00000006      19.95723442        4       0.00005694      -0.00004965       0.01553448
Pt       1.40360720       2.43111836      19.95723428        4      -0.00007681      -0.00002234       0.01554309
Pt       4.21082081       2.43111834      19.95723435        4       0.00000168       0.00000092       0.01529618
Pt       7.01803481       2.43111842      19.95723424        4      -0.00029409      -0.00011089       0.01563490
Pt       2.80721405       4.86223723      19.95723396        4       0.00024439      -0.00020135       0.01563323
Pt       5.61442805       4.86223729      19.95723414        4       0.00001687       0.00007363       0.01554415
Pt       8.42164141       4.86223719      19.95723428        4       0.00000131      -0.00000102       0.01502731
Pt       1.40360726       0.81037260      22.29206791        3      -0.00067812      -0.00010380      -0.04703230
Pt       4.21082130       0.81037249      22.29206785        3      -0.00036188      -0.00026796      -0.04507903
Pt       7.01803472       0.81037257      22.29206783        3       0.00042928      -0.00053103      -0.04702798
Pt       2.80721450       3.24149124      22.29206777        3      -0.00006305       0.00044765      -0.04508896
Pt       5.61442762       3.24149124      22.29206789        3       0.00041760      -0.00017043      -0.04508299
Pt       8.42164156       3.24149128      22.29206809        3       0.00019953      -0.00201202      -0.04156742
Pt       4.21082092       5.67260996      22.29206799        3       0.00024646       0.00064263      -0.04704107
Pt       7.01803487       5.67261037      22.29206782        3      -0.00184391       0.00083195      -0.04156956
Pt       9.82524820       5.67261064      22.29206809        3       0.00165166       0.00116430      -0.04157055
Pt      -0.00000052       1.62074570      24.58417379        2      -0.00021920       0.00554744       0.03314857
Pt       2.80721442       1.62074548      24.58417394        2       0.00066935       0.00026641       0.03701274
Pt       5.61442780       1.62074537      24.58417373        2      -0.00055899       0.00045040       0.03700948
Pt       1.40360637       4.05186438      24.58417386        2       0.00320615      -0.00110385       0.02935484
Pt       4.21082089       4.05186400      24.58417379        2      -0.00011464      -0.00070458       0.03697020
Pt       7.01803504       4.05186405      24.58417405        2      -0.00256097      -0.00222725       0.02936411
Pt       2.80721281       6.48298343      24.58417366        2      -0.00468532      -0.00298245       0.03314766
Pt       5.61442797       6.48298326      24.58417386        2       0.00492471      -0.00256982       0.03314573
Pt       8.42164223       6.48298340      24.58417377        2      -0.00065724       0.00331999       0.02940041
Pt       0.00000106      -0.00000058      26.91474081        1      -0.00000780      -0.00000265      -0.01706806
Pt       2.80875790       0.00008314      26.91798618        1      -0.01488223       0.00157152      -0.00676803
Pt       5.61307262       0.00026463      26.91787657        1       0.01451040       0.00126743      -0.00598412
Pt       1.40451612       2.43215740      26.91787577        1      -0.00613949      -0.01324243      -0.00600842
Pt       4.21082290       2.43112027      26.91733874        1       0.00000187      -0.00000364      -0.00257643
Pt       7.01719848       2.43240615      26.91798673        1       0.00606252      -0.01368611      -0.00680503
Pt       2.80650701       4.86086175      26.91798256        1       0.00881830       0.01214540      -0.00679108
Pt       5.61487373       4.86093613      26.91787079        1      -0.00836442       0.01195281      -0.00602138
Pt       8.42163980       4.86223673      26.91255023        1       0.00000044       0.00000352       0.01740288
C        0.00000060      -0.00000139      31.96683226        0      -0.00000442      -0.00000635      -0.00005395
O       -0.00000003       0.00000167      33.14825433        0       0.00000148       0.00000140      -0.03053690
O        0.00000131      -0.00000492      30.78610162        0       0.00000148       0.00000193       0.03467276
