39
Lattice="8.421641763931781 0.0 0.0 4.2108208819658905 7.293355709136913 0.0 0.0 0.0 46.87624170604845" Properties=species:S:1:pos:R:3:tags:I:1:forces:R:3 charge=0 spin=0 energy=-209.36407565211255 free_energy=-209.36407565211255 stress="0.010442711412906647 1.8017907166267833e-09 4.1482919321822465e-09 1.8017907166267833e-09 0.010442729108035564 -8.643230020588533e-10 4.1482919321822465e-09 -8.643230020588533e-10 -0.0001276018301723525" pbc="T T T"
Pt      -0.00000001       0.00000022      19.95723425        4       0.00000252      -0.00000217       0.01478314
Pt       2.80721397      -0.00000009      19.95723437        4      -0.00006314       0.00031079       0.01545074
Pt       5.61442779      -0.00000006      19.95723442        4       0.00014829       0.00010417       0.01536385
Pt       1.40360720       2.43111836      19.95723428        4       0.00000971      -0.00017755       0.01537733
Pt       4.21082081       2.43111834      19.95723435        4       0.00000187       0.00000091       0.01514116
Pt       7.01803481       2.43111842      19.95723424        4      -0.00023679      -0.00020666       0.01545600
Pt       2.80721405       4.86223723      19.95723396        4       0.00029746      -0.00010561       0.01545541
Pt       5.61442805       4.86223729      19.95723414        4      -0.00016119       0.00007593       0.01537835
Pt       8.42164141       4.86223719      19.95723428        4       0.00000111      -0.00000003       0.01491215
Pt       1.40360726       0.81037260      22.29206791        3      -0.00028411       0.00015572      -0.04533541
Pt       4.21082130       0.81037249      22.29206785        3      -0.00027282      -0.00030188      -0.04547909
Pt       7.01803472       0.81037257      22.29206783        3       0.00000968      -0.00032075      -0.04533026
Pt       2.80721450       3.24149124      22.29206777        3      -0.00013583       0.00038966      -0.04548498
Pt       5.61442762       3.24149124      22.29206789        3       0.00040211      -0.00007878      -0.04548416
Pt       8.42164156       3.24149128      22.29206809        3       0.00017246      -0.00101467      -0.04312105
Pt       4.21082092       5.67260996      22.29206799        3       0.00027175       0.00016865      -0.04534388
Pt       7.01803487       5.67261037      22.29206782        3      -0.00097106       0.00036118      -0.04312316
Pt       9.82524820       5.67261064      22.29206809        3       0.00080717       0.00064297      -0.04312553
Pt      -0.00000052       1.62074570      24.58417379        2      -0.00011771       0.00429833       0.01864284
Pt       2.80721442       1.62074548      24.58417394        2      -0.00356593      -0.00240800       0.01492463
Pt       5.61442780       1.62074537      24.58417373        2       0.00385659      -0.00190892       0.01491930
Pt       1.40360637       4.05186438      24.58417386        2       0.00039269      -0.00010764       0.03365985
Pt       4.21082089       4.05186400      24.58417379        2      -0.00030403       0.00430025       0.01487091
Pt       7.01803504       4.05186405      24.58417405        2      -0.00026308      -0.00028191       0.03362571
Pt       2.80721281       6.48298343      24.58417366        2      -0.00367326      -0.00224993       0.01865240
Pt       5.61442797       6.48298326      24.58417386        2       0.00379323      -0.00201977       0.01864517
Pt       8.42164223       6.48298340      24.58417377        2      -0.00011627       0.00037077       0.03371190
Pt      -0.00000152      -0.00000061      26.91408344        1       0.00000323       0.00000393       0.00277601
Pt       2.80558979       0.00122628      26.91546566        1       0.01182803      -0.01365153       0.00440268
Pt       5.61673212       0.00186279      26.91565261        1      -0.01404085      -0.01577680       0.00387700
Pt       1.40406936       2.42817685      26.91564503        1      -0.00663210       0.02008927       0.00386390
Pt       4.21081876       2.43111779      26.90821417        1       0.00000047       0.00001465       0.03770134
Pt       7.01778030       2.42909304      26.91545395        1       0.00595245       0.01704424       0.00441538
Pt       2.80909017       4.86304271      26.91545013        1      -0.01775764      -0.00345085       0.00443782
Pt       5.61166393       4.86330556      26.91563025        1       0.02066007      -0.00426047       0.00392194
Pt       8.42164639       4.86223479      26.91398262        1      -0.00001356      -0.00000780       0.00213850
C        0.00000058       0.00000087      32.11227899        0      -0.00000109      -0.00000120      -0.01789902
O        0.00000028      -0.00000013      33.29361809        0      -0.00000030       0.00000104      -0.01042075
O        0.00000100       0.00000191      30.93167147        0      -0.00000025       0.00000029       0.02364192
