39
Lattice="8.421641763931781 0.0 0.0 4.2108208819658905 7.293355709136913 0.0 0.0 0.0 46.87624170604845" Properties=species:S:1:pos:R:3:tags:I:1:forces:R:3 charge=0 spin=0 energy=-72.362660399427 free_energy=-72.362660399427 stress="0.009773979894816875 -4.836769676330732e-06 -6.702743121422827e-06 -4.836769676330732e-06 0.009751481004059315 4.689622073783539e-06 -6.702743121422827e-06 4.689622073783539e-06 -0.0003450733202043921" pbc="T T T"
Pt      -0.00000001       0.00000022      19.95723425        4      -0.01119079      -0.01374736       0.01495766
Pt       2.80721397      -0.00000009      19.95723437        4       0.00029617      -0.00028430       0.02116006
Pt       5.61442779      -0.00000006      19.95723442        4       0.00545798      -0.01433561       0.01542735
Pt       1.40360720       2.43111836      19.95723428        4       0.00975433       0.01112447       0.01536113
Pt       4.21082081       2.43111834      19.95723435        4      -0.00536357       0.01620428       0.01485505
Pt       7.01803481       2.43111842      19.95723424        4       0.00024423      -0.00023722       0.01169755
Pt       2.80721405       4.86223723      19.95723396        4      -0.00000833       0.00005498      -0.05053256
Pt       5.61442805       4.86223729      19.95723414        4      -0.01418237       0.00216273       0.01549313
Pt       8.42164141       4.86223719      19.95723428        4       0.01750698      -0.00368806       0.01476251
Pt       1.40360726       0.81037260      22.29206791        3      -0.02697877      -0.00474800      -0.07502216
Pt       4.21082130       0.81037249      22.29206785        3       0.01189833       0.02463232      -0.07486320
Pt       7.01803472       0.81037257      22.29206783        3      -0.00103259       0.00589920      -0.06441481
Pt       2.80721450       3.24149124      22.29206777        3      -0.00150135       0.02607195      -0.05592802
Pt       5.61442762       3.24149124      22.29206789        3       0.00862397      -0.00344826      -0.06511325
Pt       8.42164156       3.24149128      22.29206809        3      -0.00426422      -0.00745647      -0.06541272
Pt       4.21082092       5.67260996      22.29206799        3      -0.02177029      -0.01834459      -0.05387100
Pt       7.01803487       5.67261037      22.29206782        3       0.01766999      -0.02347413      -0.07490142
Pt       9.82524820       5.67261064      22.29206809        3       0.02669690      -0.01289115      -0.05290731
Pt      -0.00000052       1.62074570      24.58417379        2      -0.02008653       0.02368425      -0.00076065
Pt       2.80721442       1.62074548      24.58417394        2       0.00985802      -0.09338410       0.22165643
Pt       5.61442780       1.62074537      24.58417373        2       0.02041497       0.00959453       0.00118146
Pt       1.40360637       4.05186438      24.58417386        2       0.06527860       0.04683907      -0.05213702
Pt       4.21082089       4.05186400      24.58417379        2      -0.07236208       0.04365877      -0.05049115
Pt       7.01803504       4.05186405      24.58417405        2      -0.01298285      -0.01598033      -0.00047537
Pt       2.80721281       6.48298343      24.58417366        2      -0.00226999      -0.07524761      -0.04861013
Pt       5.61442797       6.48298326      24.58417386        2       0.07315276       0.06406762       0.22188485
Pt       8.42164223       6.48298340      24.58417377        2      -0.09257755       0.04090751       0.21815269
Pt      -0.02219513       0.00938921      26.90716920        1       0.00355150       0.00029154      -0.00003965
Pt       1.48966597      -0.39107703      38.59307011        1      -0.02358603       0.00891533      -0.01696348
Pt       5.62188025      -0.00431786      26.90570051        1       0.00410290       0.00278698       0.00090237
Pt       1.40188196       2.45318018      26.90570845        1       0.00126610      -0.00802400      -0.00100998
Pt       4.21728737       2.45127925      26.90765515        1       0.00603814      -0.00694636       0.00014578
Pt       7.01419202       2.43884649      26.91392245        1      -0.00127739      -0.00837430       0.00067703
Pt       2.80273287       4.86887357      26.94322062        1       0.00289862      -0.00275347       0.00240167
Pt       5.59573699       4.86246003      26.90659124        1       0.00360167      -0.00286068      -0.00390868
Pt       8.42365536       4.85036420      26.90757766        1      -0.00046328      -0.00175428      -0.00031747
C        2.86139807       0.54105371      37.98447779        0      -0.01006884      -0.00567496      -0.00597259
O        3.83009227       0.39671008      37.35816975        0       0.00355631       0.00192798       0.00540283
O        1.60531734      -0.30113689      38.75023881        0       0.03009729      -0.00516911       0.01753346
