39
Lattice="8.421641763931781 0.0 0.0 4.2108208819658905 7.293355709136913 0.0 0.0 0.0 46.87624170604845" Properties=species:S:1:pos:R:3:tags:I:1:forces:R:3 charge=0 spin=0 energy=-75.96103381251294 free_energy=-75.96103381251294 stress="0.00975966639816761 1.2255270576133626e-06 2.0228553694323637e-06 1.2255270576133626e-06 0.009758749976754189 -6.188163297338178e-07 2.0228553694323637e-06 -6.188163297338178e-07 -0.00034807584597729146" pbc="T T T"
Pt      -0.00000001       0.00000022      19.95723425        4      -0.01457009       0.00247924       0.01537903
Pt       2.80721397      -0.00000009      19.95723437        4       0.01721150      -0.00329986       0.01487598
Pt       5.61442779      -0.00000006      19.95723442        4       0.00001954      -0.00000939      -0.05045711
Pt       1.40360720       2.43111836      19.95723428        4      -0.00002306      -0.00003531       0.02112180
Pt       4.21082081       2.43111834      19.95723435        4       0.00520804      -0.01383870       0.01558723
Pt       7.01803481       2.43111842      19.95723424        4      -0.01157049      -0.01324595       0.01491745
Pt       2.80721405       4.86223723      19.95723396        4      -0.00572255       0.01653329       0.01475655
Pt       5.61442805       4.86223729      19.95723414        4      -0.00001404      -0.00004910       0.01169954
Pt       8.42164141       4.86223719      19.95723428        4       0.00945087       0.01136614       0.01541128
Pt       1.40360726       0.81037260      22.29206791        3       0.01684395      -0.02203308      -0.07494258
Pt       4.21082130       0.81037249      22.29206785        3       0.02579573      -0.01117712      -0.05410625
Pt       7.01803472       0.81037257      22.29206783        3      -0.02293956      -0.01643237      -0.05408831
Pt       2.80721450       3.24149124      22.29206777        3       0.01103685       0.02561915      -0.07476705
Pt       5.61442762       3.24149124      22.29206789        3      -0.00220951       0.00742217      -0.06388280
Pt       8.42164156       3.24149128      22.29206809        3      -0.02800153      -0.00366514      -0.07496606
Pt       4.21082092       5.67260996      22.29206799        3       0.00764302      -0.00197868      -0.06528010
Pt       7.01803487       5.67261037      22.29206782        3      -0.00540058      -0.00564961      -0.06556164
Pt       9.82524820       5.67261064      22.29206809        3      -0.00294692       0.02768705      -0.05482331
Pt      -0.00000052       1.62074570      24.58417379        2       0.07748193       0.05950739       0.22043370
Pt       2.80721442       1.62074548      24.58417394        2      -0.08905836       0.03751963       0.21993321
Pt       5.61442780       1.62074537      24.58417373        2       0.00030575      -0.08052363      -0.04841752
Pt       1.40360637       4.05186438      24.58417386        2       0.01351399      -0.09643237       0.22119851
Pt       4.21082089       4.05186400      24.58417379        2       0.02381002       0.00423059      -0.00111987
Pt       7.01803504       4.05186405      24.58417405        2      -0.01604365       0.01926351      -0.00293207
Pt       2.80721281       6.48298343      24.58417366        2      -0.07060513       0.03909678      -0.04760488
Pt       5.61442797       6.48298326      24.58417386        2      -0.00922733      -0.02168359      -0.00200642
Pt       8.42164223       6.48298340      24.58417377        2       0.07029211       0.04038338      -0.04901812
Pt       3.00743870      -0.39367967      32.96677766        1      -0.00927699      -0.00810447      -0.00575673
Pt       1.40393255      -2.43050330      26.91330238        1      -0.00128410      -0.00145947       0.00324501
Pt      -0.01415711      -0.00538431      26.90655652        1      -0.00046033      -0.00084490      -0.00331746
Pt       0.00145652       4.87636512      26.90635426        1       0.00445148       0.00505146      -0.00242383
Pt       2.81335446      -0.01720400      26.90701210        1       0.00026196      -0.00011489      -0.00155873
Pt       7.00031656       2.43453637      26.90678487        1      -0.00119543       0.00174616       0.00434872
Pt       2.81967054       4.87643925      26.90787069        1      -0.00317648      -0.00110650       0.00097040
Pt       4.22264257       2.42228531      26.90605341        1       0.00105571      -0.00166114      -0.00108982
Pt       9.82516475       7.29391325      26.94426314        1       0.00006137      -0.00263798      -0.00251984
C        1.52493054      -1.49101120      33.96965192        0       0.00421576      -0.01051736       0.00287539
O        0.79813015      -0.65952222      34.22456916        0      -0.00722848       0.00671143       0.00056692
O        2.89274478      -0.22375217      32.89482649        0       0.01230056       0.01188258       0.00332213
