39
Lattice="8.421641763931781 0.0 0.0 4.2108208819658905 7.293355709136913 0.0 0.0 0.0 46.87624170604845" Properties=species:S:1:pos:R:3:tags:I:1:forces:R:3 charge=0 spin=0 energy=-209.3640794668098 free_energy=-209.3640794668098 stress="0.010442663915455341 4.881336668205449e-09 -5.529938285064873e-09 4.881336668205449e-09 0.01044267788529396 -3.5456668712186e-09 -5.529938285064873e-09 -3.5456668712186e-09 -0.00012782147678080946" pbc="T T T"
Pt      -0.00000001       0.00000022      19.95723425        4       0.00000250      -0.00000229       0.01478295
Pt       2.80721397      -0.00000009      19.95723437        4      -0.00006306       0.00031076       0.01545057
Pt       5.61442779      -0.00000006      19.95723442        4       0.00014826       0.00010406       0.01536389
Pt       1.40360720       2.43111836      19.95723428        4       0.00000985      -0.00017747       0.01537708
Pt       4.21082081       2.43111834      19.95723435        4       0.00000194       0.00000089       0.01514137
Pt       7.01803481       2.43111842      19.95723424        4      -0.00023690      -0.00020653       0.01545617
Pt       2.80721405       4.86223723      19.95723396        4       0.00029737      -0.00010570       0.01545541
Pt       5.61442805       4.86223729      19.95723414        4      -0.00016113       0.00007603       0.01537839
Pt       8.42164141       4.86223719      19.95723428        4       0.00000127       0.00000011       0.01491228
Pt       1.40360726       0.81037260      22.29206791        3      -0.00028394       0.00015642      -0.04533638
Pt       4.21082130       0.81037249      22.29206785        3      -0.00027264      -0.00030111      -0.04547802
Pt       7.01803472       0.81037257      22.29206783        3       0.00000923      -0.00032049      -0.04533011
Pt       2.80721450       3.24149124      22.29206777        3      -0.00013545       0.00038955      -0.04548521
Pt       5.61442762       3.24149124      22.29206789        3       0.00040155      -0.00007879      -0.04548340
Pt       8.42164156       3.24149128      22.29206809        3       0.00017306      -0.00101425      -0.04312100
Pt       4.21082092       5.67260996      22.29206799        3       0.00027187       0.00016830      -0.04534454
Pt       7.01803487       5.67261037      22.29206782        3      -0.00097164       0.00036077      -0.04312382
Pt       9.82524820       5.67261064      22.29206809        3       0.00080631       0.00064324      -0.04312509
Pt      -0.00000052       1.62074570      24.58417379        2      -0.00011935       0.00429991       0.01863023
Pt       2.80721442       1.62074548      24.58417394        2      -0.00356263      -0.00240781       0.01491427
Pt       5.61442780       1.62074537      24.58417373        2       0.00385484      -0.00190859       0.01491113
Pt       1.40360637       4.05186438      24.58417386        2       0.00038593      -0.00010403       0.03365530
Pt       4.21082089       4.05186400      24.58417379        2      -0.00030235       0.00429657       0.01486069
Pt       7.01803504       4.05186405      24.58417405        2      -0.00025846      -0.00027847       0.03362658
Pt       2.80721281       6.48298343      24.58417366        2      -0.00367535      -0.00224954       0.01863880
Pt       5.61442797       6.48298326      24.58417386        2       0.00379632      -0.00202114       0.01863587
Pt       8.42164223       6.48298340      24.58417377        2      -0.00011632       0.00036447       0.03371385
Pt      -0.00000119      -0.00000066      26.91407955        1       0.00000519       0.00000345       0.00279883
Pt       2.80558975       0.00122728      26.91546414        1       0.01183218      -0.01366272       0.00440866
Pt       5.61673270       0.00186312      26.91565119        1      -0.01405916      -0.01578140       0.00386678
Pt       1.40406998       2.42817635      26.91564253        1      -0.00663430       0.02009851       0.00387249
Pt       4.21081862       2.43111763      26.90821403        1       0.00000206       0.00001481       0.03770306
Pt       7.01777996       2.42909260      26.91545218        1       0.00595396       0.01705398       0.00441788
Pt       2.80909073       4.86304238      26.91544766        1      -0.01776415      -0.00344992       0.00445332
Pt       5.61166307       4.86330527      26.91562931        1       0.02067580      -0.00426825       0.00391379
Pt       8.42164591       4.86223427      26.91398536        1      -0.00001584      -0.00000501       0.00211986
C        0.00000060       0.00000177      32.11242060        0      -0.00000111       0.00000016      -0.01767969
O        0.00000014      -0.00000039      33.29375958        0       0.00000211       0.00000110      -0.01040599
O        0.00000090       0.00000385      30.93181422        0       0.00000211       0.00000043       0.02345379
