39
Lattice="8.421641763931781 0.0 0.0 4.2108208819658905 7.293355709136913 0.0 0.0 0.0 46.87624170604845" Properties=species:S:1:pos:R:3:tags:I:1:forces:R:3 charge=0 spin=0 energy=-209.36408614253003 free_energy=-209.36408614253003 stress="0.010442658327519894 2.6148867515729535e-09 3.903136480687408e-09 2.6148867515729535e-09 0.01044267974793911 -2.805363719105003e-09 3.903136480687408e-09 -2.805363719105003e-09 -0.00012786636943928897" pbc="T T T"
Pt      -0.00000001       0.00000022      19.95723425        4       0.00000252      -0.00000222       0.01478308
Pt       2.80721397      -0.00000009      19.95723437        4      -0.00006308       0.00031085       0.01545059
Pt       5.61442779      -0.00000006      19.95723442        4       0.00014846       0.00010424       0.01536391
Pt       1.40360720       2.43111836      19.95723428        4       0.00000963      -0.00017761       0.01537706
Pt       4.21082081       2.43111834      19.95723435        4       0.00000192       0.00000077       0.01514129
Pt       7.01803481       2.43111842      19.95723424        4      -0.00023684      -0.00020659       0.01545598
Pt       2.80721405       4.86223723      19.95723396        4       0.00029748      -0.00010556       0.01545539
Pt       5.61442805       4.86223729      19.95723414        4      -0.00016115       0.00007628       0.01537829
Pt       8.42164141       4.86223719      19.95723428        4       0.00000123       0.00000007       0.01491228
Pt       1.40360726       0.81037260      22.29206791        3      -0.00028382       0.00015634      -0.04533565
Pt       4.21082130       0.81037249      22.29206785        3      -0.00027239      -0.00030172      -0.04547828
Pt       7.01803472       0.81037257      22.29206783        3       0.00000873      -0.00032130      -0.04533006
Pt       2.80721450       3.24149124      22.29206777        3      -0.00013599       0.00038940      -0.04548472
Pt       5.61442762       3.24149124      22.29206789        3       0.00040194      -0.00007931      -0.04548419
Pt       8.42164156       3.24149128      22.29206809        3       0.00017295      -0.00101424      -0.04312177
Pt       4.21082092       5.67260996      22.29206799        3       0.00027180       0.00016812      -0.04534378
Pt       7.01803487       5.67261037      22.29206782        3      -0.00097110       0.00036036      -0.04312452
Pt       9.82524820       5.67261064      22.29206809        3       0.00080624       0.00064324      -0.04312602
Pt      -0.00000052       1.62074570      24.58417379        2      -0.00011771       0.00429654       0.01863916
Pt       2.80721442       1.62074548      24.58417394        2      -0.00356656      -0.00240775       0.01491474
Pt       5.61442780       1.62074537      24.58417373        2       0.00385688      -0.00190882       0.01490868
Pt       1.40360637       4.05186438      24.58417386        2       0.00038873      -0.00010611       0.03365855
Pt       4.21082089       4.05186400      24.58417379        2      -0.00030363       0.00430066       0.01486026
Pt       7.01803504       4.05186405      24.58417405        2      -0.00025982      -0.00027917       0.03362517
Pt       2.80721281       6.48298343      24.58417366        2      -0.00367128      -0.00224904       0.01864773
Pt       5.61442797       6.48298326      24.58417386        2       0.00379184      -0.00201868       0.01864133
Pt       8.42164223       6.48298340      24.58417377        2      -0.00011622       0.00036685       0.03370994
Pt      -0.00000075      -0.00000066      26.91408298        1       0.00000335       0.00000511       0.00278131
Pt       2.80558984       0.00122732      26.91546517        1       0.01183003      -0.01366103       0.00440484
Pt       5.61673234       0.00186366      26.91565084        1      -0.01405341      -0.01578371       0.00386589
Pt       1.40406993       2.42817633      26.91564310        1      -0.00663251       0.02010605       0.00385137
Pt       4.21081879       2.43111788      26.90821265        1       0.00000085       0.00001613       0.03771238
Pt       7.01778005       2.42909284      26.91545252        1       0.00595708       0.01705249       0.00441530
Pt       2.80909073       4.86304244      26.91544860        1      -0.01776598      -0.00344841       0.00444108
Pt       5.61166282       4.86330535      26.91562895        1       0.02067582      -0.00427132       0.00390728
Pt       8.42164597       4.86223484      26.91398423        1      -0.00001420      -0.00001078       0.00212817
C        0.00000068       0.00000118      32.11245123        0      -0.00000225      -0.00000257      -0.01763778
O        0.00000008       0.00000032      33.29378828        0       0.00000015       0.00000169      -0.01040803
O        0.00000076       0.00000140      30.93184486        0       0.00000017       0.00000097       0.02344379
