39
Lattice="8.421641763931781 0.0 0.0 4.2108208819658905 7.293355709136913 0.0 0.0 0.0 46.87624170604845" Properties=species:S:1:pos:R:3:tags:I:1:forces:R:3 charge=0 spin=0 energy=-209.36504077052075 free_energy=-209.36504077052075 stress="0.010491695255041122 -3.8384428968640805e-09 -8.368778448009095e-10 -3.8384428968640805e-09 0.010491708293557167 3.6222653765349833e-09 -8.368778448009095e-10 3.6222653765349833e-09 -4.641341729438864e-05" pbc="T T T"
Pt      -0.00000001       0.00000022      19.95723425        4       0.00000261      -0.00000169       0.01519686
Pt       2.80721397      -0.00000009      19.95723437        4       0.00004732       0.00031213       0.01563386
Pt       5.61442779      -0.00000006      19.95723442        4       0.00005717      -0.00004960       0.01553424
Pt       1.40360720       2.43111836      19.95723428        4      -0.00007673      -0.00002225       0.01554300
Pt       4.21082081       2.43111834      19.95723435        4       0.00000170       0.00000077       0.01529599
Pt       7.01803481       2.43111842      19.95723424        4      -0.00029407      -0.00011088       0.01563486
Pt       2.80721405       4.86223723      19.95723396        4       0.00024424      -0.00020129       0.01563327
Pt       5.61442805       4.86223729      19.95723414        4       0.00001664       0.00007341       0.01554391
Pt       8.42164141       4.86223719      19.95723428        4       0.00000142      -0.00000099       0.01502718
Pt       1.40360726       0.81037260      22.29206791        3      -0.00067780      -0.00010442      -0.04703207
Pt       4.21082130       0.81037249      22.29206785        3      -0.00036174      -0.00026763      -0.04508019
Pt       7.01803472       0.81037257      22.29206783        3       0.00042914      -0.00053116      -0.04702748
Pt       2.80721450       3.24149124      22.29206777        3      -0.00006290       0.00044763      -0.04508843
Pt       5.61442762       3.24149124      22.29206789        3       0.00041770      -0.00017037      -0.04508347
Pt       8.42164156       3.24149128      22.29206809        3       0.00019952      -0.00201186      -0.04156705
Pt       4.21082092       5.67260996      22.29206799        3       0.00024676       0.00064256      -0.04704092
Pt       7.01803487       5.67261037      22.29206782        3      -0.00184363       0.00083174      -0.04156988
Pt       9.82524820       5.67261064      22.29206809        3       0.00165145       0.00116432      -0.04157082
Pt      -0.00000052       1.62074570      24.58417379        2      -0.00022122       0.00554666       0.03315182
Pt       2.80721442       1.62074548      24.58417394        2       0.00066936       0.00026644       0.03701311
Pt       5.61442780       1.62074537      24.58417373        2      -0.00055798       0.00045147       0.03701221
Pt       1.40360637       4.05186438      24.58417386        2       0.00320630      -0.00110418       0.02935582
Pt       4.21082089       4.05186400      24.58417379        2      -0.00011643      -0.00070581       0.03696826
Pt       7.01803504       4.05186405      24.58417405        2      -0.00255948      -0.00223044       0.02936512
Pt       2.80721281       6.48298343      24.58417366        2      -0.00468343      -0.00298109       0.03314982
Pt       5.61442797       6.48298326      24.58417386        2       0.00492285      -0.00256683       0.03314518
Pt       8.42164223       6.48298340      24.58417377        2      -0.00065692       0.00332060       0.02940059
Pt       0.00000108      -0.00000045      26.91474251        1      -0.00000786      -0.00000367      -0.01707540
Pt       2.80875756       0.00008302      26.91798626        1      -0.01488587       0.00157322      -0.00676022
Pt       5.61307303       0.00026457      26.91787632        1       0.01450544       0.00126961      -0.00598684
Pt       1.40451580       2.43215717      26.91787598        1      -0.00613637      -0.01323882      -0.00601054
Pt       4.21082305       2.43112028      26.91733900        1       0.00000191      -0.00000347      -0.00257758
Pt       7.01719867       2.43240595      26.91798694        1       0.00606488      -0.01368862      -0.00680195
Pt       2.80650696       4.86086209      26.91798246        1       0.00881910       0.01214412      -0.00678879
Pt       5.61487353       4.86093654      26.91787040        1      -0.00836451       0.01195354      -0.00600734
Pt       8.42163983       4.86223676      26.91255012        1      -0.00000037       0.00000046       0.01740271
C        0.00000102      -0.00000145      31.96682469        0      -0.00000190      -0.00000063       0.00024373
O        0.00000015       0.00000176      33.14824912        0       0.00000164      -0.00000174      -0.03088796
O        0.00000114      -0.00000516      30.78609496        0       0.00000185      -0.00000123       0.03470525
